ITEM: TIMESTEP
0
ITEM: NUMBER OF ATOMS
192
ITEM: BOX BOUNDS pp pp pp
0.0000000000000000e+00 1.2417223000000000e+01
0.0000000000000000e+00 1.2417223000000000e+01
0.0000000000000000e+00 3.7251669000000000e+01
ITEM: ATOMS id mol type x y z xu yu zu vx vy vz
1 1 1 7.49479 1.69467 23.7498 7.49479 1.69467 23.7498 0 0 0
2 1 2 7.39916 0.759739 23.9814 7.39916 0.759739 23.9814 0 0 0
3 1 2 8.43113 1.78428 23.5206 8.43113 1.78428 23.5206 0 0 0
4 2 1 11.2343 4.22044 14.306 11.2343 4.22044 14.306 0 0 0
5 2 2 11.1579 4.07503 15.2544 11.1579 4.07503 15.2544 0 0 0
6 2 2 11.1099 5.17919 14.2111 11.1099 5.17919 14.2111 0 0 0
7 3 1 11.5633 7.63811 23.349 11.5633 7.63811 23.349 0 0 0
8 3 2 12.062 6.99009 23.8628 12.062 6.99009 23.8628 0 0 0
9 3 2 12.2551 8.23579 23.0133 12.2551 8.23579 23.0133 0 0 0
10 4 1 2.02155 6.4119 16.0176 2.02155 6.4119 16.0176 0 0 0
11 4 2 2.39766 6.40519 16.9164 2.39766 6.40519 16.9164 0 0 0
12 4 2 1.84455 5.49479 15.7717 1.84455 5.49479 15.7717 0 0 0
13 5 1 2.40006 4.2655 19.7748 2.40006 4.2655 19.7748 0 0 0
14 5 2 1.52679 4.07359 20.1671 1.52679 4.07359 20.1671 0 0 0
15 5 2 2.28347 5.15877 19.416 2.28347 5.15877 19.416 0 0 0
16 6 1 3.6497 6.70787 18.2444 3.6497 6.70787 18.2444 0 0 0
17 6 2 4.28225 5.99032 18.3887 4.28225 5.99032 18.3887 0 0 0
18 6 2 3.86198 7.38788 18.9008 3.86198 7.38788 18.9008 0 0 0
19 7 1 5.41525 2.78815 16.0407 5.41525 2.78815 16.0407 0 0 0
20 7 2 6.38442 2.78935 15.9669 6.38442 2.78935 15.9669 0 0 0
21 7 2 5.04705 2.40232 15.2343 5.04705 2.40232 15.2343 0 0 0
22 8 1 5.37032 6.12422 20.8361 5.37032 6.12422 20.8361 0 0 0
23 8 2 5.5105 5.49258 20.1093 5.5105 5.49258 20.1093 0 0 0
24 8 2 5.95074 5.8083 21.5441 5.95074 5.8083 21.5441 0 0 0
25 9 1 10.6576 2.10332 20.1466 10.6576 2.10332 20.1466 0 0 0
26 9 2 10.9553 1.3089 19.6712 10.9553 1.3089 19.6712 0 0 0
27 9 2 11.4445 2.61488 20.4169 11.4445 2.61488 20.4169 0 0 0
28 10 1 3.85073 0.640437 20.2778 3.85073 0.640437 20.2778 0 0 0
29 10 2 2.98677 1.03819 20.4909 2.98677 1.03819 20.4909 0 0 0
30 10 2 4.49077 1.00864 20.9134 4.49077 1.00864 20.9134 0 0 0
31 11 1 7.14186 11.3223 23.9505 7.14186 11.3223 23.9505 0 0 0
32 11 2 7.76571 10.8321 24.4967 7.76571 10.8321 24.4967 0 0 0
33 11 2 7.38758 11.052 23.0495 7.38758 11.052 23.0495 0 0 0
34 12 1 10.7162 12.227 18.557 10.7162 12.227 18.557 0 0 0
35 12 2 11.0061 11.5245 19.1626 11.0061 11.5245 19.1626 0 0 0
36 12 2 9.75276 12.313 18.6503 9.75276 12.313 18.6503 0 0 0
37 13 1 7.30168 5.03855 22.6182 7.30168 5.03855 22.6182 0 0 0
38 13 2 7.68203 4.31504 22.0897 7.68203 4.31504 22.0897 0 0 0
39 13 2 6.81974 4.64211 23.3473 6.81974 4.64211 23.3473 0 0 0
40 14 1 3.03889 2.89841 17.5534 3.03889 2.89841 17.5534 0 0 0
41 14 2 3.84366 3.17816 17.0991 3.84366 3.17816 17.0991 0 0 0
42 14 2 2.99362 3.37522 18.3998 2.99362 3.37522 18.3998 0 0 0
43 15 1 2.61499 11.3252 22.2387 2.61499 11.3252 22.2387 0 0 0
44 15 2 3.15203 11.582 21.4786 3.15203 11.582 21.4786 0 0 0
45 15 2 3.2569 11.1834 22.9681 3.2569 11.1834 22.9681 0 0 0
46 16 1 5.69798 1.80095 18.5528 5.69798 1.80095 18.5528 0 0 0
47 16 2 5.4571 1.91598 17.619 5.4571 1.91598 17.619 0 0 0
48 16 2 4.89621 1.48134 18.9923 4.89621 1.48134 18.9923 0 0 0
49 17 1 1.35097 3.30781 23.381 1.35097 3.30781 23.381 0 0 0
50 17 2 2.26471 3.33499 23.0419 2.26471 3.33499 23.0419 0 0 0
51 17 2 1.28552 4.09155 23.9423 1.28552 4.09155 23.9423 0 0 0
52 18 1 7.31482 5.01883 13.7782 7.31482 5.01883 13.7782 0 0 0
53 18 2 7.77679 5.82922 13.5326 7.77679 5.82922 13.5326 0 0 0
54 18 2 7.87155 4.2758 13.5161 7.87155 4.2758 13.5161 0 0 0
55 19 1 6.87439 7.74668 19.0237 6.87439 7.74668 19.0237 0 0 0
56 19 2 7.30089 8.6049 19.1812 7.30089 8.6049 19.1812 0 0 0
57 19 2 6.30431 7.5302 19.7794 6.30431 7.5302 19.7794 0 0 0
58 20 1 10.2005 1.66335 22.9335 10.2005 1.66335 22.9335 0 0 0
59 20 2 10.4238 1.66762 21.9915 10.4238 1.66762 21.9915 0 0 0
60 20 2 11.0264 1.81225 23.396 11.0264 1.81225 23.396 0 0 0
61 21 1 7.59748 7.77001 22.8897 7.59748 7.77001 22.8897 0 0 0
62 21 2 7.7303 6.81098 22.8574 7.7303 6.81098 22.8574 0 0 0
63 21 2 8.26776 8.15092 23.4816 8.26776 8.15092 23.4816 0 0 0
64 22 1 8.31781 7.83538 13.401 8.31781 7.83538 13.401 0 0 0
65 22 2 8.08076 8.54357 14.0365 8.08076 8.54357 14.0365 0 0 0
66 22 2 8.14823 8.21001 12.5353 8.14823 8.21001 12.5353 0 0 0
67 23 1 0.181619 8.5887 15.9247 0.181619 8.5887 15.9247 0 0 0
68 23 2 0.804009 9.3356 16.0004 0.804009 9.3356 16.0004 0 0 0
69 23 2 0.752472 7.80145 15.9791 0.752472 7.80145 15.9791 0 0 0
70 24 1 1.24065 1.17187 21.3794 1.24065 1.17187 21.3794 0 0 0
71 24 2 1.47953 0.352792 21.8354 1.47953 0.352792 21.8354 0 0 0
72 24 2 1.12345 1.80727 22.0936 1.12345 1.80727 22.0936 0 0 0
73 25 1 3.7955 1.58922 14.0903 3.7955 1.58922 14.0903 0 0 0
74 25 2 3.87161 0.692858 14.4747 3.87161 0.692858 14.4747 0 0 0
75 25 2 4.09459 1.49203 13.1851 4.09459 1.49203 13.1851 0 0 0
76 26 1 5.86483 1.98464 21.6091 5.86483 1.98464 21.6091 0 0 0
77 26 2 6.47757 2.36807 20.9647 6.47757 2.36807 20.9647 0 0 0
78 26 2 6.42168 1.84292 22.4029 6.42168 1.84292 22.4029 0 0 0
79 27 1 9.4751 9.4276 24.0368 9.4751 9.4276 24.0368 0 0 0
80 27 2 10.2701 8.87731 24.019 10.2701 8.87731 24.019 0 0 0
81 27 2 9.45223 9.84546 23.1637 9.45223 9.84546 23.1637 0 0 0
82 28 1 8.23018 10.1332 21.6424 8.23018 10.1332 21.6424 0 0 0
83 28 2 8.36392 10.279 20.6939 8.36392 10.279 20.6939 0 0 0
84 28 2 7.92877 9.21598 21.7269 7.92877 9.21598 21.7269 0 0 0
85 29 1 8.79654 5.72634 19.3883 8.79654 5.72634 19.3883 0 0 0
86 29 2 8.14181 6.4269 19.2203 8.14181 6.4269 19.2203 0 0 0
87 29 2 9.22027 5.56439 18.5322 9.22027 5.56439 18.5322 0 0 0
88 30 1 1.78783 3.73684 14.4647 1.78783 3.73684 14.4647 0 0 0
89 30 2 1.07344 3.72162 13.8204 1.07344 3.72162 13.8204 0 0 0
90 30 2 2.37892 2.99601 14.2684 2.37892 2.99601 14.2684 0 0 0
91 31 1 8.43449 10.0495 18.8348 8.43449 10.0495 18.8348 0 0 0
92 31 2 9.23751 9.74186 18.3883 9.23751 9.74186 18.3883 0 0 0
93 31 2 8.13587 10.8545 18.3847 8.13587 10.8545 18.3847 0 0 0
94 32 1 12.4118 3.95106 21.0809 12.4118 3.95106 21.0809 0 0 0
95 32 2 0.350289 3.85095 21.9799 12.7675 3.85095 21.9799 0 0 0
96 32 2 11.8691 4.76003 21.0712 11.8691 4.76003 21.0712 0 0 0
97 33 1 4.8661 8.0906 23.1642 4.8661 8.0906 23.1642 0 0 0
98 33 2 4.61373 7.24293 23.5507 4.61373 7.24293 23.5507 0 0 0
99 33 2 5.83697 8.03787 23.1348 5.83697 8.03787 23.1348 0 0 0
100 34 1 11.0224 6.3149 20.8923 11.0224 6.3149 20.8923 0 0 0
101 34 2 10.9637 6.7873 21.7366 10.9637 6.7873 21.7366 0 0 0
102 34 2 10.1326 6.22606 20.5061 10.1326 6.22606 20.5061 0 0 0
103 35 1 4.35263 10.645 24.1786 4.35263 10.645 24.1786 0 0 0
104 35 2 4.47566 9.71087 23.9458 4.47566 9.71087 23.9458 0 0 0
105 35 2 5.25293 10.9947 24.201 5.25293 10.9947 24.201 0 0 0
106 36 1 4.13991 8.80739 20.3504 4.13991 8.80739 20.3504 0 0 0
107 36 2 4.38132 8.58986 21.2627 4.38132 8.58986 21.2627 0 0 0
108 36 2 4.69028 9.55669 20.0558 4.69028 9.55669 20.0558 0 0 0
109 37 1 9.06594 12.256 13.7395 9.06594 12.256 13.7395 0 0 0
110 37 2 9.66278 11.9476 14.4376 9.66278 11.9476 14.4376 0 0 0
111 37 2 8.26735 11.745 13.9064 8.26735 11.745 13.9064 0 0 0
112 38 1 4.20247 11.4827 15.1051 4.20247 11.4827 15.1051 0 0 0
113 38 2 5.02674 11.1184 15.4312 5.02674 11.1184 15.4312 0 0 0
114 38 2 3.50106 11.0427 15.6204 3.50106 11.0427 15.6204 0 0 0
115 39 1 8.2024 2.48239 16.2335 8.2024 2.48239 16.2335 0 0 0
116 39 2 8.85817 2.9693 16.7655 8.85817 2.9693 16.7655 0 0 0
117 39 2 8.527 2.52611 15.3189 8.527 2.52611 15.3189 0 0 0
118 40 1 5.68809 9.09041 16.8272 5.68809 9.09041 16.8272 0 0 0
119 40 2 5.13073 8.53083 16.2635 5.13073 8.53083 16.2635 0 0 0
120 40 2 5.99396 8.50164 17.5423 5.99396 8.50164 17.5423 0 0 0
121 41 1 0.32062 3.12734 16.7614 0.32062 3.12734 16.7614 0 0 0
122 41 2 1.13724 3.22897 17.269 1.13724 3.22897 17.269 0 0 0
123 41 2 0.684511 3.20388 15.8669 0.684511 3.20388 15.8669 0 0 0
124 42 1 11.7697 10.0268 20.0137 11.7697 10.0268 20.0137 0 0 0
125 42 2 11.3274 9.28315 19.571 11.3274 9.28315 19.571 0 0 0
126 42 2 12.1316 9.69179 20.8447 12.1316 9.69179 20.8447 0 0 0
127 43 1 5.55287 4.63351 18.5839 5.55287 4.63351 18.5839 0 0 0
128 43 2 5.6664 3.67262 18.6612 5.6664 3.67262 18.6612 0 0 0
129 43 2 6.09187 4.90832 17.8193 6.09187 4.90832 17.8193 0 0 0
130 44 1 8.06239 3.36367 20.553 8.06239 3.36367 20.553 0 0 0
131 44 2 8.88348 2.85833 20.4992 8.88348 2.85833 20.4992 0 0 0
132 44 2 8.23058 4.16969 20.0295 8.23058 4.16969 20.0295 0 0 0
133 45 1 8.02702 0.278191 18.0114 8.02702 0.278191 18.0114 0 0 0
134 45 2 7.23897 0.644595 18.4455 7.23897 0.644595 18.4455 0 0 0
135 45 2 8.16716 0.890804 17.2697 8.16716 0.890804 17.2697 0 0 0
136 46 1 3.78527 3.63702 22.1321 3.78527 3.63702 22.1321 0 0 0
137 46 2 3.44854 3.9635 21.2809 3.44854 3.9635 21.2809 0 0 0
138 46 2 4.54528 3.05632 21.9357 4.54528 3.05632 21.9357 0 0 0
139 47 1 10.7842 7.00681 14.369 10.7842 7.00681 14.369 0 0 0
140 47 2 11.4085 7.68578 14.6622 11.4085 7.68578 14.6622 0 0 0
141 47 2 10.0784 7.44491 13.8715 10.0784 7.44491 13.8715 0 0 0
142 48 1 1.54356 0.517921 17.6575 1.54356 0.517921 17.6575 0 0 0
143 48 2 2.19745 1.22763 17.5749 2.19745 1.22763 17.5749 0 0 0
144 48 2 0.705704 0.959765 17.4934 0.705704 0.959765 17.4934 0 0 0
145 49 1 5.3704 10.8664 19.0883 5.3704 10.8664 19.0883 0 0 0
146 49 2 5.26771 10.5535 18.1801 5.26771 10.5535 18.1801 0 0 0
147 49 2 4.77655 11.6184 19.2032 4.77655 11.6184 19.2032 0 0 0
148 50 1 4.67424 5.36071 24.0689 4.67424 5.36071 24.0689 0 0 0
149 50 2 4.31596 4.77057 23.3781 4.31596 4.77057 23.3781 0 0 0
150 50 2 4.50849 4.9128 24.899 4.50849 4.9128 24.899 0 0 0
151 51 1 6.6954 5.78361 16.3597 6.6954 5.78361 16.3597 0 0 0
152 51 2 6.92706 5.27809 15.5611 6.92706 5.27809 15.5611 0 0 0
153 51 2 5.91252 6.27658 16.0701 5.91252 6.27658 16.0701 0 0 0
154 52 1 8.98584 2.65154 13.562 8.98584 2.65154 13.562 0 0 0
155 52 2 9.87467 3.0286 13.6239 9.87467 3.0286 13.6239 0 0 0
156 52 2 9.07635 1.6907 13.4514 9.07635 1.6907 13.4514 0 0 0
157 53 1 10.3027 10.9791 16.0063 10.3027 10.9791 16.0063 0 0 0
158 53 2 10.9408 10.2616 15.9425 10.9408 10.2616 15.9425 0 0 0
159 53 2 10.5174 11.4342 16.8397 10.5174 11.4342 16.8397 0 0 0
160 54 1 1.3487 5.99678 24.2572 1.3487 5.99678 24.2572 0 0 0
161 54 2 1.84088 6.39528 24.9765 1.84088 6.39528 24.9765 0 0 0
162 54 2 1.8553 6.21232 23.4502 1.8553 6.21232 23.4502 0 0 0
163 55 1 2.51661 6.62491 21.79 2.51661 6.62491 21.79 0 0 0
164 55 2 3.42513 6.46423 21.489 3.42513 6.46423 21.489 0 0 0
165 55 2 1.94512 6.4891 21.0113 1.94512 6.4891 21.0113 0 0 0
166 56 1 4.55762 7.13428 15.1238 4.55762 7.13428 15.1238 0 0 0
167 56 2 3.64209 6.85859 15.3182 3.64209 6.85859 15.3182 0 0 0
168 56 2 4.70981 6.92617 14.2017 4.70981 6.92617 14.2017 0 0 0
169 57 1 1.10875 9.0697 22.0769 1.10875 9.0697 22.0769 0 0 0
170 57 2 1.64167 9.87887 22.1832 1.64167 9.87887 22.1832 0 0 0
171 57 2 1.74887 8.35016 21.9615 1.74887 8.35016 21.9615 0 0 0
172 58 1 1.8547 9.23859 18.9469 1.8547 9.23859 18.9469 0 0 0
173 58 2 2.54427 9.22163 19.6332 2.54427 9.22163 19.6332 0 0 0
174 58 2 1.09708 9.7117 19.3233 1.09708 9.7117 19.3233 0 0 0
175 59 1 10.677 8.53316 18.0433 10.677 8.53316 18.0433 0 0 0
176 59 2 11.4235 8.52189 17.4249 11.4235 8.52189 17.4249 0 0 0
177 59 2 10.0947 7.81592 17.7246 10.0947 7.81592 17.7246 0 0 0
178 60 1 0.962434 6.64268 19.4872 0.962434 6.64268 19.4872 0 0 0
179 60 2 1.21986 7.52252 19.1704 1.21986 7.52252 19.1704 0 0 0
180 60 2 0.046132 6.69972 19.7954 0.046132 6.69972 19.7954 0 0 0
181 61 1 10.2074 3.65288 17.8073 10.2074 3.65288 17.8073 0 0 0
182 61 2 10.2086 3.10989 18.6089 10.2086 3.10989 18.6089 0 0 0
183 61 2 11.1157 3.56603 17.4771 11.1157 3.56603 17.4771 0 0 0
184 62 1 7.77955 9.8679 15.1734 7.77955 9.8679 15.1734 0 0 0
185 62 2 8.55244 10.1703 15.6718 8.55244 10.1703 15.6718 0 0 0
186 62 2 7.11511 9.58557 15.8279 7.11511 9.58557 15.8279 0 0 0
187 63 1 9.27052 6.62869 16.7659 9.27052 6.62869 16.7659 0 0 0
188 63 2 9.7178 6.66472 15.9099 9.7178 6.66472 15.9099 0 0 0
189 63 2 8.32312 6.51492 16.5837 8.32312 6.51492 16.5837 0 0 0
190 64 1 2.05246 10.5453 16.5617 2.05246 10.5453 16.5617 0 0 0
191 64 2 2.17398 10.0475 17.3892 2.17398 10.0475 17.3892 0 0 0
192 64 2 1.81098 11.4411 16.8772 1.81098 11.4411 16.8772 0 0 0
ITEM: TIMESTEP
5000
ITEM: NUMBER OF ATOMS
192
ITEM: BOX BOUNDS pp pp pp
0.0000000000000000e+00 1.2417223000000000e+01
0.0000000000000000e+00 1.2417223000000000e+01
0.0000000000000000e+00 3.7251669000000000e+01
ITEM: ATOMS id mol type x y z xu yu zu vx vy vz
1 1 1 7.79841 10.4819 27.3378 7.79841 -1.93535 27.3378 -0.00375133 -0.00152309 0.00209729
2 1 2 7.56143 10.0153 26.5265 7.56143 -2.4019 26.5265 0.0112394 -0.00127615 -0.00180148
3 1 2 7.98388 9.82129 28.0107 7.98388 -2.59593 28.0107 -0.0229049 0.00690285 0.0158601
4 2 1 5.98407 6.73378 15.1717 18.4013 6.73378 15.1717 0.00488041 0.00736696 0.00176512
5 2 2 6.51995 6.26128 15.8121 18.9372 6.26128 15.8121 -0.0119599 0.00351857 0.0155376
6 2 2 5.27273 7.20699 15.6278 17.69 7.20699 15.6278 0.000294411 -0.00340856 0.0109758
7 3 1 0.502327 8.7756 24.9346 12.9195 8.7756 24.9346 0.00127149 -0.000927196 -0.00204976
8 3 2 0.349218 7.93948 24.4767 12.7664 7.93948 24.4767 0.00364783 -0.011614 0.0199547
9 3 2 1.36577 8.74047 25.3512 13.783 8.74047 25.3512 -0.00126191 0.030981 0.00225894
10 4 1 8.12035 6.99167 13.4501 8.12035 6.99167 13.4501 0.00143539 -0.00716253 -0.00611184
11 4 2 7.27897 6.77306 13.8787 7.27897 6.77306 13.8787 0.0152992 -0.0104428 0.0209766
12 4 2 8.60033 6.25457 13.0523 8.60033 6.25457 13.0523 -0.0286 -0.0131363 -0.0323024
13 5 1 11.4525 2.85519 21.2051 -0.964717 2.85519 21.2051 -0.00207457 -0.00319556 0.00467349
14 5 2 10.89 3.63533 21.0921 -1.52721 3.63533 21.0921 0.0172312 0.0118931 -0.0250381
15 5 2 12.3307 3.16982 20.9651 -0.0865348 3.16982 20.9651 0.00113007 -0.0114633 0.0103752
16 6 1 1.48075 4.18874 19.8961 1.48075 4.18874 19.8961 0.00376831 0.00138359 0.00293931
17 6 2 2.13606 3.98116 19.201 2.13606 3.98116 19.201 0.0275672 0.0301461 0.0140656
18 6 2 0.776634 4.61843 19.393 0.776634 4.61843 19.393 0.00469522 0.00472945 0.00424904
19 7 1 9.16721 11.838 14.4185 9.16721 -0.579226 14.4185 0.00566307 -0.00355956 0.000240159
20 7 2 8.66281 11.0342 14.5877 8.66281 -1.38306 14.5877 -0.00364964 0.00393131 0.00596812
21 7 2 9.93364 11.795 14.9905 9.93364 -0.622207 14.9905 0.00415591 0.00453014 0.00195379
22 8 1 3.69324 1.24586 19.8489 3.69324 1.24586 19.8489 -0.00479619 -0.00361432 6.84469e-05
23 8 2 4.14665 1.94446 20.3292 4.14665 1.94446 20.3292 -0.0125234 -0.0127191 0.0226584
24 8 2 2.90102 1.04519 20.3534 2.90102 1.04519 20.3534 -0.00218881 -0.0190343 -0.00446492
25 9 1 4.1772 3.22026 23.4567 4.1772 3.22026 23.4567 0.00221215 -0.00380011 0.00245876
26 9 2 3.98646 2.40721 22.9736 3.98646 2.40721 22.9736 0.0155641 -0.0133262 0.0126262
27 9 2 5.11272 3.41663 23.3302 5.11272 3.41663 23.3302 -0.00105002 0.000625286 -0.0275458
28 10 1 3.32181 0.676324 22.9302 3.32181 0.676324 22.9302 -0.00321253 0.0010577 0.00362612
29 10 2 2.45277 0.61473 23.3305 2.45277 0.61473 23.3305 -0.00281688 0.0122733 0.00799326
30 10 2 3.92665 0.384078 23.6354 3.92665 0.384078 23.6354 -0.018618 0.0065798 0.0203181
31 11 1 6.76998 9.49195 25.0587 6.76998 9.49195 25.0587 0.000678137 0.00505337 -0.000791104
32 11 2 6.89955 8.53543 25.1089 6.89955 8.53543 25.1089 0.0219571 0.0115416 -0.00266215
33 11 2 6.99089 9.80552 24.1646 6.99089 9.80552 24.1646 -0.0221901 0.020897 0.00343584
34 12 1 5.76 12.2903 23.892 5.76 12.2903 23.892 0.00431397 0.00315937 0.00704219
35 12 2 6.2805 11.9183 23.1716 6.2805 11.9183 23.1716 -0.00510838 -0.0232646 0.0142903
36 12 2 6.21516 12.0087 24.6909 6.21516 12.0087 24.6909 -0.0147672 0.00994057 0.0191857
37 13 1 2.50672 4.83284 26.736 2.50672 4.83284 26.736 -0.00731951 0.001026 0.00124167
38 13 2 3.2176 4.17627 26.8167 3.2176 4.17627 26.8167 -0.0126532 -0.00277531 0.0180189
39 13 2 1.79558 4.32116 26.3206 1.79558 4.32116 26.3206 0.00384045 -0.0062184 -0.0124182
40 14 1 3.57289 4.52573 18.3711 3.57289 4.52573 18.3711 -0.00310784 0.000674249 0.00313406
41 14 2 4.17417 4.24832 19.0756 4.17417 4.24832 19.0756 -0.00177243 -0.0116405 -0.00215453
42 14 2 3.77005 4.09474 17.5394 3.77005 4.09474 17.5394 -0.00369741 0.0116716 -0.00757031
43 15 1 3.19315 11.5791 25.6119 3.19315 11.5791 25.6119 -0.00144567 -0.00616645 0.00182616
44 15 2 4.01368 11.6491 26.1189 4.01368 11.6491 26.1189 -0.00807979 5.02761e-05 0.00599194
45 15 2 3.29261 10.6982 25.2255 3.29261 10.6982 25.2255 -0.00421956 -0.0134583 0.00907192
46 16 1 4.05174 10.8118 18.2052 4.05174 -1.60545 18.2052 -0.0030176 0.00165867 0.000554011
47 16 2 4.85363 11.2722 18.4716 4.85363 -1.145 18.4716 -0.000478047 -0.00710328 0.00606983
48 16 2 3.36856 11.0458 18.8486 3.36856 -1.37143 18.8486 -0.000648365 -0.00672661 0.00454284
49 17 1 9.42888 3.0704 24.7452 -2.98834 3.0704 24.7452 0.000272793 -0.00102389 0.00104286
50 17 2 9.98043 2.30842 24.5095 -2.4368 2.30842 24.5095 0.00515517 0.000162098 0.000608209
51 17 2 10.0894 3.69376 25.0525 -2.32782 3.69376 25.0525 -0.00843633 -0.00531841 0.0275587
52 18 1 10.6604 8.12788 11.1837 10.6604 8.12788 11.1837 0.00392246 0.00405628 0.000909731
53 18 2 10.9277 8.92052 11.6686 10.9277 8.92052 11.6686 -0.022998 -0.00505443 0.0370077
54 18 2 9.74011 8.34559 10.9516 9.74011 8.34559 10.9516 0.000993134 -0.0179141 -0.0149795
55 19 1 9.52922 8.81342 17.2237 9.52922 8.81342 17.2237 -0.00570022 0.0037014 -0.000625466
56 19 2 9.44573 8.19871 17.9558 9.44573 8.19871 17.9558 -0.0143376 0.0124986 0.007295
57 19 2 9.23116 8.33836 16.4387 9.23116 8.33836 16.4387 0.023971 -0.000366491 -0.0110984
58 20 1 7.68418 2.19995 27.0974 7.68418 2.19995 27.0974 -0.00922254 -0.00183092 0.00451841
59 20 2 7.33936 1.37974 26.7228 7.33936 1.37974 26.7228 -0.0231546 0.00231191 0.0108507
60 20 2 8.32712 2.50007 26.4375 8.32712 2.50007 26.4375 -0.00965362 -0.0167659 -0.00446479
61 21 1 6.59969 6.14129 25.5077 6.59969 6.14129 25.5077 0.00484521 -0.00418884 0.00179468
62 21 2 5.73343 5.75822 25.3191 5.73343 5.75822 25.3191 0.00174689 0.000841402 -0.00232255
63 21 2 7.0364 5.50361 26.0719 7.0364 5.50361 26.0719 0.0107875 -0.0072244 -0.00390506
64 22 1 9.63047 11.7444 11.3015 9.63047 11.7444 11.3015 0.00365639 0.0114473 -0.00488836
65 22 2 8.95701 11.3541 11.8768 8.95701 11.3541 11.8768 0.0173782 0.00726128 0.0110449
66 22 2 10.1915 12.2187 11.9225 10.1915 12.2187 11.9225 0.0239135 -0.0179763 0.00183008
67 23 1 3.55731 7.58924 16.3066 3.55731 7.58924 16.3066 -0.00137725 -0.00598205 -0.000825266
68 23 2 3.19652 8.45157 16.0764 3.19652 8.45157 16.0764 0.000933753 -0.01114 -0.0127626
69 23 2 3.1411 7.36352 17.1636 3.1411 7.36352 17.1636 -0.0102482 -0.0100218 -0.00406747
70 24 1 12.3762 10.5717 23.0543 -0.0410191 -1.8455 23.0543 0.00305894 -0.0104967 -0.00344671
71 24 2 0.388734 10.1219 23.8037 0.388734 -2.29529 23.8037 -0.0254885 -0.0268212 0.00212685
72 24 2 0.615278 10.9539 22.46 0.615278 -1.4633 22.46 0.0165064 -0.0046583 0.0178604
73 25 1 7.79923 6.7085 7.05259 7.79923 6.7085 7.05259 0.00813401 0.00470092 -0.0141534
74 25 2 7.99489 7.58745 7.38895 7.99489 7.58745 7.38895 0.0151245 -0.000926116 -0.00465788
75 25 2 8.43547 6.61612 6.34149 8.43547 6.61612 6.34149 0.0229847 0.000859755 0.000434696
76 26 1 5.6732 12.1427 26.8843 5.6732 -0.274527 26.8843 -0.00211511 0.00146397 0.00237275
77 26 2 5.27614 0.23366 27.6032 5.27614 0.23366 27.6032 -0.0242455 -0.00940602 0.00108462
78 26 2 6.35407 11.5928 27.3235 6.35407 -0.824401 27.3235 -0.021607 -0.0158031 0.0105511
79 27 1 10.3217 9.03718 21.838 10.3217 9.03718 21.838 -0.00175007 0.00527986 -0.00853815
80 27 2 10.0837 8.18992 22.2292 10.0837 8.18992 22.2292 0.0245214 -0.000289898 -0.00195359
81 27 2 10.8711 9.52784 22.4721 10.8711 9.52784 22.4721 0.00472389 0.000685623 -0.00734148
82 28 1 7.85392 10.6797 22.7742 7.85392 10.6797 22.7742 0.000622822 -0.00838493 -0.00392504
83 28 2 7.57521 10.2977 21.922 7.57521 10.2977 21.922 -0.00632631 -0.00548155 -0.0025677
84 28 2 8.78434 10.4453 22.8219 8.78434 10.4453 22.8219 0.00182268 -0.00465607 0.00971763
85 29 1 8.40196 7.1513 20.0197 8.40196 7.1513 20.0197 0.00122266 0.00357584 -0.00822364
86 29 2 8.47335 8.11058 19.986 8.47335 8.11058 19.986 -0.000931358 0.0059238 0.0169967
87 29 2 7.77645 7.00415 20.7504 7.77645 7.00415 20.7504 0.0192517 -0.0169445 0.00721065
88 30 1 7.2067 4.34873 3.85716 7.2067 4.34873 3.85716 -0.00121464 0.00293873 -0.00724949
89 30 2 7.20118 4.12451 4.79344 7.20118 4.12451 4.79344 0.0018509 -0.00815254 -0.00910029
90 30 2 6.42135 4.87779 3.71747 6.42135 4.87779 3.71747 -0.0161474 -0.0178546 -0.00507497
91 31 1 7.26689 11.4786 17.9601 7.26689 11.4786 17.9601 0.00402419 0.0018679 -0.00985962
92 31 2 7.77253 10.7722 17.5391 7.77253 10.7722 17.5391 0.00803302 -0.00807427 0.0126099
93 31 2 7.90702 12.1461 18.2372 7.90702 12.1461 18.2372 -0.0155446 0.0133699 -0.00423198
94 32 1 7.36338 3.59226 22.7222 7.36338 3.59226 22.7222 -0.0028743 -0.00713631 0.00141004
95 32 2 8.17902 3.19271 23.0468 8.17902 3.19271 23.0468 -0.00332441 -0.00268552 0.00903046
96 32 2 7.24423 3.1944 21.8517 7.24423 3.1944 21.8517 0.019673 0.00431701 -0.00771373
97 33 1 3.67718 6.50337 25.1052 3.67718 6.50337 25.1052 -0.00870537 -0.00178116 0.00803393
98 33 2 3.11036 5.93988 25.67 3.11036 5.93988 25.67 0.00111368 -0.016097 0.00438571
99 33 2 3.32702 6.32889 24.2219 3.32702 6.32889 24.2219 0.00915301 0.00961918 0.00014324
100 34 1 12.2817 9.06291 19.5743 12.2817 9.06291 19.5743 0.00512066 -0.00702788 0.00906764
101 34 2 11.5586 8.95135 20.2141 11.5586 8.95135 20.2141 -0.00915764 0.00413937 -0.00464172
102 34 2 11.907 9.01774 18.6882 11.907 9.01774 18.6882 0.0173149 0.0255592 0.00369562
103 35 1 4.13876 9.05483 24.341 4.13876 9.05483 24.341 0.000391715 -0.000931293 0.00139723
104 35 2 3.8857 8.27106 24.8471 3.8857 8.27106 24.8471 0.00423667 0.00943916 0.021927
105 35 2 5.03992 9.25686 24.6272 5.03992 9.25686 24.6272 0.00264359 -0.0028829 -0.00107131
106 36 1 4.67091 7.47178 20.3621 4.67091 7.47178 20.3621 -0.00796947 0.00415147 0.00437496
107 36 2 5.57521 7.40272 20.686 5.57521 7.40272 20.686 -0.0147163 0.00178757 0.0210612
108 36 2 4.77922 8.04275 19.5977 4.77922 8.04275 19.5977 0.00639897 0.00480539 0.00584854
109 37 1 0.681745 4.91293 11.3863 13.099 17.3301 11.3863 -0.000474159 -0.00215974 -0.00146213
110 37 2 12.2256 5.14754 11.0621 12.2256 17.5648 11.0621 -0.000562633 -0.0120179 -0.00428645
111 37 2 0.942372 5.63566 11.9779 13.3596 18.0529 11.9779 0.00633218 0.0144042 -0.028257
112 38 1 2.87914 3.90021 15.6763 2.87914 16.3174 15.6763 -0.00204334 0.000143315 -0.0055344
113 38 2 3.37388 4.32569 14.9691 3.37388 16.7429 14.9691 -0.00317119 0.0176874 0.00306408
114 38 2 1.99536 3.91374 15.3005 1.99536 16.331 15.3005 -0.0101643 0.00362421 0.0154949
115 39 1 10.4401 2.03501 14.8927 10.4401 2.03501 14.8927 0.00918757 -0.00185631 -0.000453086
116 39 2 11.2468 1.98638 14.3643 11.2468 1.98638 14.3643 0.0221997 -0.00696094 0.0211384
117 39 2 9.72294 1.93477 14.2616 9.72294 1.93477 14.2616 0.0184736 -0.0327747 -0.00744858
118 40 1 5.29271 9.57533 10.7861 5.29271 9.57533 10.7861 0.00145822 -0.007025 0.00123901
119 40 2 5.08007 8.67133 10.55 5.08007 8.67133 10.55 -0.00106995 -0.00546657 -0.00513883
120 40 2 5.42195 10.0043 9.93793 5.42195 10.0043 9.93793 -0.00967733 -0.0110481 -0.00515573
121 41 1 7.8014 3.84891 19.4405 -4.61582 3.84891 19.4405 0.00259773 0.00275189 -0.00316242
122 41 2 8.51029 4.39508 19.1027 -3.90693 4.39508 19.1027 0.000645829 0.000791531 -0.0259347
123 41 2 7.88536 3.07389 18.8608 -4.53186 3.07389 18.8608 -0.0209695 -0.0149972 0.0201337
124 42 1 1.6609 11.0913 20.3148 14.0781 11.0913 20.3148 -0.00556381 -0.00060575 -0.00273893
125 42 2 1.16156 10.3871 19.8759 13.5788 10.3871 19.8759 -0.0145209 0.0105543 -0.00749872
126 42 2 2.42248 10.66 20.7304 14.8397 10.66 20.7304 -0.00622926 -0.0105341 -0.0058647
127 43 1 5.32228 2.36881 17.1888 5.32228 2.36881 17.1888 -0.0118861 0.00407107 -0.00159469
128 43 2 4.78221 1.90305 17.832 4.78221 1.90305 17.832 -0.00364065 0.00698831 0.00351564
129 43 2 4.96146 2.28646 16.3068 4.96146 2.28646 16.3068 -0.0192977 0.0214008 0.00299453
130 44 1 4.6835 2.77142 26.659 4.6835 2.77142 26.659 0.000868833 0.00197045 0.00133402
131 44 2 5.61024 2.66226 26.8989 5.61024 2.66226 26.8989 -0.0109362 -0.0140911 0.0240481
132 44 2 4.66177 2.59563 25.7064 4.66177 2.59563 25.7064 -0.00708386 -0.0237712 0.00449638
133 45 1 8.00547 1.70238 17.3436 8.00547 1.70238 17.3436 0.00649359 -0.000157439 0.0019896
134 45 2 7.07411 1.81337 17.1085 7.07411 1.81337 17.1085 0.00823339 0.0221577 0.00124376
135 45 2 8.43411 1.41765 16.5321 8.43411 1.41765 16.5321 -0.000501395 0.00236811 -0.00241939
136 46 1 11.4929 1.10841 23.7994 -0.924293 1.10841 23.7994 -3.96139e-05 -0.00780156 -0.00083551
137 46 2 11.5441 1.59473 22.9581 -0.873168 1.59473 22.9581 -0.0103429 -0.00260538 0.00348727
138 46 2 11.5996 0.183511 23.5457 -0.817574 0.183511 23.5457 -0.0134072 -0.0117815 0.0142469
139 47 1 0.964689 6.87609 13.8859 13.3819 6.87609 13.8859 0.00019707 -0.00273827 0.00659622
140 47 2 1.02845 6.39016 14.7169 13.4457 6.39016 14.7169 0.00575007 0.00523498 0.0116207
141 47 2 1.30026 7.7306 14.1796 13.7175 7.7306 14.1796 -0.00342365 0.00407724 -0.0060393
142 48 1 3.56901 10.3575 15.3835 3.56901 -2.05975 15.3835 0.0126547 0.000464094 -0.00114446
143 48 2 2.90574 11.0378 15.2354 2.90574 -1.37943 15.2354 0.0230904 0.0120968 -0.00309029
144 48 2 3.80146 10.5131 16.3144 3.80146 -1.90415 16.3144 0.00522071 -0.00732034 0.0033675
145 49 1 6.65875 9.78602 20.3893 6.65875 9.78602 20.3893 0.00442089 0.00165978 0.0070855
146 49 2 6.93299 10.3819 19.6772 6.93299 10.3819 19.6772 -0.0103976 0.0021949 0.00237769
147 49 2 5.76861 10.067 20.6436 5.76861 10.067 20.6436 0.00351279 -0.00352659 0.0159876
148 50 1 12.3763 3.33118 25.7861 -0.040929 3.33118 25.7861 -0.00589328 -0.00348413 -0.00827873
149 50 2 0.0690346 2.47042 25.3522 0.0690346 2.47042 25.3522 -0.0014111 -0.00793676 0.000452875
150 50 2 12.04 3.11792 26.6619 -0.377243 3.11792 26.6619 -0.00162875 0.00143561 -0.00572099
151 51 1 10.443 5.79341 12.863 10.443 5.79341 12.863 0.00637504 0.00401397 -0.00429498
152 51 2 10.8456 6.63243 12.6103 10.8456 6.63243 12.6103 0.018995 -0.00182699 0.000707508
153 51 2 10.87 5.51284 13.6764 10.87 5.51284 13.6764 -0.00341913 0.0152291 0.00167795
154 52 1 0.614775 2.76962 13.1688 13.032 2.76962 13.1688 0.00568049 0.00218622 0.000976375
155 52 2 0.702692 3.42076 12.4521 13.1199 3.42076 12.4521 -0.00537287 -0.00325991 -0.00632594
156 52 2 1.46556 2.32185 13.1733 13.8828 2.32185 13.1733 0.00655912 0.0053445 -0.0102233
157 53 1 10.987 1.07145 7.50436 10.987 13.4887 7.50436 -0.00274906 0.00228434 -0.00663116
158 53 2 11.3343 1.59375 6.77629 11.3343 14.011 6.77629 0.0100104 0.00707549 0.0044972
159 53 2 11.4414 1.40854 8.27959 11.4414 13.8258 8.27959 -0.0215187 -0.0125468 0.00739971
160 54 1 11.9915 6.24796 23.7114 -0.425686 6.24796 23.7114 -0.00829157 0.00284515 0.00269511
161 54 2 11.5874 5.49771 24.1529 -0.829857 5.49771 24.1529 -0.00460487 -0.00183478 -0.0021226
162 54 2 0.420098 5.85888 23.4366 0.420098 5.85888 23.4366 -0.00842915 0.00580291 -0.00141995
163 55 1 1.98091 5.04612 22.3975 1.98091 5.04612 22.3975 0.000302156 0.0115733 -0.000434102
164 55 2 2.66093 4.59625 22.9247 2.66093 4.59625 22.9247 -0.00904073 -0.0198398 -0.0166303
165 55 2 1.97626 4.56543 21.5553 1.97626 4.56543 21.5553 -0.0245961 0.00897287 0.00103044
166 56 1 8.05709 9.65872 13.5355 8.05709 9.65872 13.5355 -0.00102524 -0.00613357 0.00506996
167 56 2 7.29432 9.72489 12.9568 7.29432 9.72489 12.9568 0.0138332 -0.0091562 -0.0157117
168 56 2 8.17989 8.6815 13.5588 8.17989 8.6815 13.5588 -2.74329e-05 -0.00406458 -0.0118407
169 57 1 3.97826 10.2708 21.6207 3.97826 10.2708 21.6207 0.00565479 -0.00146465 -0.00431806
170 57 2 4.0877 11.2194 21.7817 4.0877 11.2194 21.7817 0.0136175 -0.00172492 -0.017258
171 57 2 4.06498 9.84172 22.4911 4.06498 9.84172 22.4911 -0.0241589 0.0111737 0.00620834
172 58 1 2.26727 6.93403 18.7017 2.26727 6.93403 18.7017 -0.00187309 0.0066917 -0.00208743
173 58 2 2.61985 6.068 18.9519 2.61985 6.068 18.9519 -0.0261974 -0.00271201 -0.000306344
174 58 2 2.19367 7.4828 19.4812 2.19367 7.4828 19.4812 0.0328455 -0.00565952 0.0109332
175 59 1 11.1005 10.0071 14.7143 11.1005 10.0071 14.7143 0.00723505 0.00765648 -0.000161713
176 59 2 11.7619 9.36131 14.4605 11.7619 9.36131 14.4605 0.00236915 0.0136676 -0.0211778
177 59 2 10.4974 10.0826 13.9709 10.4974 10.0826 13.9709 0.00358749 0.0161309 0.000498115
178 60 1 10.2371 5.40259 20.8945 -2.18017 5.40259 20.8945 -0.00499682 -0.0052907 0.00625967
179 60 2 10.9234 5.96399 21.255 -1.49387 5.96399 21.255 -0.00320095 -0.0031317 0.00827089
180 60 2 9.66806 6.02475 20.415 -2.74917 6.02475 20.415 0.0195143 0.00691677 -0.00897358
181 61 1 6.79187 6.13093 22.3323 6.79187 6.13093 22.3323 0.00280661 0.000116618 0.00658693
182 61 2 6.42889 6.6389 23.0603 6.42889 6.6389 23.0603 -0.00545489 0.0115317 -0.00972663
183 61 2 7.09971 5.26909 22.6764 7.09971 5.26909 22.6764 -0.00135264 -0.0015506 0.00754023
184 62 1 8.50992 9.27322 9.32288 8.50992 9.27322 9.32288 -0.00073009 0.00380196 -0.00612025
185 62 2 9.05544 9.99902 8.99024 9.05544 9.99902 8.99024 -0.00547852 -0.0103278 -0.0441558
186 62 2 7.722 9.66181 9.71005 7.722 9.66181 9.71005 0.00478679 0.0207943 -0.00866137
187 63 1 5.36521 4.14897 20.5515 5.36521 4.14897 20.5515 -0.0105027 0.00405109 0.00446813
188 63 2 6.26032 4.24152 20.1729 6.26032 4.24152 20.1729 -0.0157214 0.00953611 -0.00341584
189 63 2 5.24371 4.98226 21.0197 5.24371 4.98226 21.0197 -0.00361089 -0.014352 0.0368216
190 64 1 5.21975 1.02961 14.0231 5.21975 13.4468 14.0231 0.00606373 0.00471071 -0.00612106
191 64 2 5.98374 0.927826 13.4512 5.98374 13.345 13.4512 0.00763446 -0.004904 -0.00187297
192 64 2 4.89212 0.129693 14.0877 4.89212 12.5469 14.0877 0.00993802 0.00467287 0.00526421
