ITEM: TIMESTEP
0
ITEM: NUMBER OF ATOMS
1536
ITEM: BOX BOUNDS pp pp pp
0.0000000000000000e+00 2.4834447000000001e+01
0.0000000000000000e+00 2.4834447000000001e+01
0.0000000000000000e+00 7.4503341000000006e+01
ITEM: ATOMS id mol type x y z xu yu zu vx vy vz
1 1 1 12.023 16.9767 39.7556 12.023 16.9767 39.7556 0 0 0
2 1 2 12.4916 16.6666 40.5515 12.4916 16.6666 40.5515 0 0 0
3 1 2 11.6389 17.8274 40.0224 11.6389 17.8274 40.0224 0 0 0
4 2 1 8.62937 14.5295 45.7802 8.62937 14.5295 45.7802 0 0 0
5 2 2 8.81416 14.2773 46.6979 8.81416 14.2773 46.6979 0 0 0
6 2 2 7.66577 14.611 45.6867 7.66577 14.611 45.6867 0 0 0
7 3 1 4.9079 21.9977 47.8541 4.9079 21.9977 47.8541 0 0 0
8 3 2 5.57337 21.4167 47.4361 5.57337 21.4167 47.4361 0 0 0
9 3 2 4.86111 21.7365 48.774 4.86111 21.7365 48.774 0 0 0
10 4 1 14.7202 21.49 26.2818 14.7202 21.49 26.2818 0 0 0
11 4 2 14.6984 21.3658 27.2482 14.6984 21.3658 27.2482 0 0 0
12 4 2 13.8762 21.1205 25.9986 13.8762 21.1205 25.9986 0 0 0
13 5 1 16.0354 7.0812 43.8539 16.0354 7.0812 43.8539 0 0 0
14 5 2 16.5371 6.43554 44.3785 16.5371 6.43554 44.3785 0 0 0
15 5 2 15.7721 7.77239 44.4807 15.7721 7.77239 44.4807 0 0 0
16 6 1 2.61188 10.7357 41.9695 2.61188 10.7357 41.9695 0 0 0
17 6 2 3.48916 10.8902 42.3343 3.48916 10.8902 42.3343 0 0 0
18 6 2 2.14926 11.5781 42.0965 2.14926 11.5781 42.0965 0 0 0
19 7 1 21.0038 4.28283 40.3001 21.0038 4.28283 40.3001 0 0 0
20 7 2 21.2107 4.93934 40.9866 21.2107 4.93934 40.9866 0 0 0
21 7 2 20.0947 4.04271 40.5348 20.0947 4.04271 40.5348 0 0 0
22 8 1 18.7987 9.58883 30.2894 18.7987 9.58883 30.2894 0 0 0
23 8 2 18.2294 9.05977 29.7251 18.2294 9.05977 29.7251 0 0 0
24 8 2 18.2374 10.2549 30.7224 18.2374 10.2549 30.7224 0 0 0
25 9 1 2.61051 18.4462 31.8118 2.61051 18.4462 31.8118 0 0 0
26 9 2 3.46571 18.6012 32.2481 3.46571 18.6012 32.2481 0 0 0
27 9 2 2.35968 19.2779 31.3724 2.35968 19.2779 31.3724 0 0 0
28 10 1 12.2003 5.34108 33.1771 12.2003 5.34108 33.1771 0 0 0
29 10 2 11.7183 5.13206 33.9898 11.7183 5.13206 33.9898 0 0 0
30 10 2 12.4157 4.50172 32.7447 12.4157 4.50172 32.7447 0 0 0
31 11 1 6.88054 10.4795 34.45 6.88054 10.4795 34.45 0 0 0
32 11 2 6.5668 9.63722 34.1093 6.5668 9.63722 34.1093 0 0 0
33 11 2 7.58354 10.2413 35.0848 7.58354 10.2413 35.0848 0 0 0
34 12 1 6.7017 23.9527 39.3962 6.7017 23.9527 39.3962 0 0 0
35 12 2 6.68387 23.2439 40.0565 6.68387 23.2439 40.0565 0 0 0
36 12 2 6.26213 24.7043 39.8207 6.26213 24.7043 39.8207 0 0 0
37 13 1 17.6053 24.7923 44.7687 17.6053 24.7923 44.7687 0 0 0
38 13 2 17.4007 0.904787 44.7728 17.4007 25.7392 44.7728 0 0 0
39 13 2 18.5718 24.7615 44.7252 18.5718 24.7615 44.7252 0 0 0
40 14 1 12.2471 7.03711 27.4041 12.2471 7.03711 27.4041 0 0 0
41 14 2 12.1318 7.92654 27.0628 12.1318 7.92654 27.0628 0 0 0
42 14 2 11.4106 6.57588 27.244 11.4106 6.57588 27.244 0 0 0
43 15 1 23.1253 0.688743 32.4568 23.1253 0.688743 32.4568 0 0 0
44 15 2 22.9103 1.00898 31.5633 22.9103 1.00898 31.5633 0 0 0
45 15 2 22.8092 1.37897 33.065 22.8092 1.37897 33.065 0 0 0
46 16 1 3.89918 16.8839 29.8713 3.89918 16.8839 29.8713 0 0 0
47 16 2 4.82318 17.071 30.0813 4.82318 17.071 30.0813 0 0 0
48 16 2 3.39383 17.3208 30.5833 3.39383 17.3208 30.5833 0 0 0
49 17 1 16.2412 19.9528 40.1613 16.2412 19.9528 40.1613 0 0 0
50 17 2 16.2235 19.8221 39.1968 16.2235 19.8221 39.1968 0 0 0
51 17 2 16.7681 19.2098 40.5081 16.7681 19.2098 40.5081 0 0 0
52 18 1 3.21347 9.69932 39.4398 3.21347 9.69932 39.4398 0 0 0
53 18 2 4.14927 9.49088 39.6163 4.14927 9.49088 39.6163 0 0 0
54 18 2 2.86934 9.94585 40.3166 2.86934 9.94585 40.3166 0 0 0
55 19 1 19.218 7.53135 47.1819 19.218 7.53135 47.1819 0 0 0
56 19 2 18.3251 7.12979 47.1704 18.3251 7.12979 47.1704 0 0 0
57 19 2 19.0837 8.44784 47.4882 19.0837 8.44784 47.4882 0 0 0
58 20 1 3.64214 5.80455 27.0879 3.64214 5.80455 27.0879 0 0 0
59 20 2 4.49103 5.65534 27.536 4.49103 5.65534 27.536 0 0 0
60 20 2 3.21848 6.54006 27.5457 3.21848 6.54006 27.5457 0 0 0
61 21 1 8.03314 19.8354 42.6869 8.03314 19.8354 42.6869 0 0 0
62 21 2 8.3113 19.276 41.924 8.3113 19.276 41.924 0 0 0
63 21 2 8.75906 19.8826 43.324 8.75906 19.8826 43.324 0 0 0
64 22 1 15.4108 20.9564 45.1446 15.4108 20.9564 45.1446 0 0 0
65 22 2 15.33 21.9053 44.9225 15.33 21.9053 44.9225 0 0 0
66 22 2 14.54 20.5872 44.9336 14.54 20.5872 44.9336 0 0 0
67 23 1 5.24504 24.7342 47.2978 5.24504 -0.100206 47.2978 0 0 0
68 23 2 5.14004 23.7992 47.5223 5.14004 -1.0353 47.5223 0 0 0
69 23 2 4.40634 0.340128 47.5331 4.40634 0.340128 47.5331 0 0 0
70 24 1 10.2489 11.7577 34.0736 10.2489 11.7577 34.0736 0 0 0
71 24 2 11.1539 11.55 33.7623 11.1539 11.55 33.7623 0 0 0
72 24 2 10.1915 11.3872 34.9613 10.1915 11.3872 34.9613 0 0 0
73 25 1 15.5019 1.83448 36.4926 15.5019 1.83448 36.4926 0 0 0
74 25 2 15.3361 1.39478 37.3444 15.3361 1.39478 37.3444 0 0 0
75 25 2 14.635 1.90524 36.0693 14.635 1.90524 36.0693 0 0 0
76 26 1 1.93914 11.1333 45.1235 1.93914 11.1333 45.1235 0 0 0
77 26 2 2.05582 10.2776 44.6849 2.05582 10.2776 44.6849 0 0 0
78 26 2 1.94157 11.8084 44.4184 1.94157 11.8084 44.4184 0 0 0
79 27 1 16.2535 15.943 42.765 16.2535 15.943 42.765 0 0 0
80 27 2 15.7199 15.1329 42.7933 15.7199 15.1329 42.7933 0 0 0
81 27 2 16.9095 15.8494 43.473 16.9095 15.8494 43.473 0 0 0
82 28 1 11.6369 10.3503 26.7474 11.6369 10.3503 26.7474 0 0 0
83 28 2 12.5251 10.3617 26.3568 12.5251 10.3617 26.3568 0 0 0
84 28 2 11.806 10.2164 27.7068 11.806 10.2164 27.7068 0 0 0
85 29 1 9.12085 0.208555 38.9918 9.12085 25.043 38.9918 0 0 0
86 29 2 8.28021 24.5788 39.1906 8.28021 24.5788 39.1906 0 0 0
87 29 2 8.94755 0.613011 38.1245 8.94755 25.4475 38.1245 0 0 0
88 30 1 21.0315 10.3943 39.9285 21.0315 10.3943 39.9285 0 0 0
89 30 2 21.2346 9.82625 40.695 21.2346 9.82625 40.695 0 0 0
90 30 2 20.1707 10.0877 39.5994 20.1707 10.0877 39.5994 0 0 0
91 31 1 3.9096 14.6579 36.4285 3.9096 14.6579 36.4285 0 0 0
92 31 2 3.96216 15.0805 37.3093 3.96216 15.0805 37.3093 0 0 0
93 31 2 4.60781 13.9888 36.3839 4.60781 13.9888 36.3839 0 0 0
94 32 1 23.6176 21.0105 30.585 23.6176 21.0105 30.585 0 0 0
95 32 2 22.9157 21.3471 29.9934 22.9157 21.3471 29.9934 0 0 0
96 32 2 23.2447 20.3056 31.1637 23.2447 20.3056 31.1637 0 0 0
97 33 1 11.9371 1.74471 45.4982 11.9371 1.74471 45.4982 0 0 0
98 33 2 11.6311 2.08374 44.6486 11.6311 2.08374 44.6486 0 0 0
99 33 2 11.8496 0.778654 45.4308 11.8496 0.778654 45.4308 0 0 0
100 34 1 12.5408 19.4149 32.4533 12.5408 19.4149 32.4533 0 0 0
101 34 2 12.7465 18.6135 32.9618 12.7465 18.6135 32.9618 0 0 0
102 34 2 12.1507 20.0655 33.069 12.1507 20.0655 33.069 0 0 0
103 35 1 12.2735 7.39255 40.8168 12.2735 7.39255 40.8168 0 0 0
104 35 2 12.4237 6.45715 40.6353 12.4237 6.45715 40.6353 0 0 0
105 35 2 11.9108 7.77968 39.9937 11.9108 7.77968 39.9937 0 0 0
106 36 1 19.464 13.5284 32.1763 19.464 13.5284 32.1763 0 0 0
107 36 2 19.8404 13.8774 31.3507 19.8404 13.8774 31.3507 0 0 0
108 36 2 20.2236 13.2848 32.7245 20.2236 13.2848 32.7245 0 0 0
109 37 1 4.11183 21.8853 40.7207 4.11183 21.8853 40.7207 0 0 0
110 37 2 5.02834 21.7959 41.0251 5.02834 21.7959 41.0251 0 0 0
111 37 2 3.96031 22.8386 40.68 3.96031 22.8386 40.68 0 0 0
112 38 1 21.7421 8.97134 42.2096 21.7421 8.97134 42.2096 0 0 0
113 38 2 21.4479 8.06024 42.0466 21.4479 8.06024 42.0466 0 0 0
114 38 2 22.6876 8.87518 42.4068 22.6876 8.87518 42.4068 0 0 0
115 39 1 0.904429 23.0732 40.4205 0.904429 23.0732 40.4205 0 0 0
116 39 2 1.5272 23.8086 40.5266 1.5272 23.8086 40.5266 0 0 0
117 39 2 1.17826 22.4796 41.144 1.17826 22.4796 41.144 0 0 0
118 40 1 19.4289 16.2758 27.9965 19.4289 16.2758 27.9965 0 0 0
119 40 2 19.8547 15.9842 27.1845 19.8547 15.9842 27.1845 0 0 0
120 40 2 19.7261 15.6236 28.6613 19.7261 15.6236 28.6613 0 0 0
121 41 1 10.0236 18.5583 31.8629 10.0236 18.5583 31.8629 0 0 0
122 41 2 10.9642 18.8167 31.8994 10.9642 18.8167 31.8994 0 0 0
123 41 2 9.87625 18.1381 30.9973 9.87625 18.1381 30.9973 0 0 0
124 42 1 5.60978 16.3122 34.8223 5.60978 16.3122 34.8223 0 0 0
125 42 2 5.68623 15.6636 34.0984 5.68623 15.6636 34.0984 0 0 0
126 42 2 4.97257 15.9118 35.4355 4.97257 15.9118 35.4355 0 0 0
127 43 1 7.12813 21.3161 38.4882 7.12813 21.3161 38.4882 0 0 0
128 43 2 7.22699 22.142 38.0064 7.22699 22.142 38.0064 0 0 0
129 43 2 7.84728 21.3191 39.1418 7.84728 21.3191 39.1418 0 0 0
130 44 1 23.0458 4.4294 35.8406 23.0458 4.4294 35.8406 0 0 0
131 44 2 23.9185 4.0892 36.1185 23.9185 4.0892 36.1185 0 0 0
132 44 2 23.225 5.19522 35.2654 23.225 5.19522 35.2654 0 0 0
133 45 1 12.4058 13.0803 38.0359 12.4058 13.0803 38.0359 0 0 0
134 45 2 13.3145 13.0678 38.3834 13.3145 13.0678 38.3834 0 0 0
135 45 2 12.4623 13.4653 37.1521 12.4623 13.4653 37.1521 0 0 0
136 46 1 14.4111 13.5959 29.9042 14.4111 13.5959 29.9042 0 0 0
137 46 2 14.5637 14.5307 30.1289 14.5637 14.5307 30.1289 0 0 0
138 46 2 14.8211 13.4543 29.0325 14.8211 13.4543 29.0325 0 0 0
139 47 1 9.41728 23.2125 44.1083 9.41728 23.2125 44.1083 0 0 0
140 47 2 9.0891 22.5368 44.7111 9.0891 22.5368 44.7111 0 0 0
141 47 2 10.2238 23.5344 44.5403 10.2238 23.5344 44.5403 0 0 0
142 48 1 9.27426 2.59724 40.536 9.27426 2.59724 40.536 0 0 0
143 48 2 8.39323 2.86723 40.8388 8.39323 2.86723 40.8388 0 0 0
144 48 2 9.16654 1.74313 40.0844 9.16654 1.74313 40.0844 0 0 0
145 49 1 4.98655 2.91634 37.4517 4.98655 2.91634 37.4517 0 0 0
146 49 2 5.83722 3.36579 37.3267 5.83722 3.36579 37.3267 0 0 0
147 49 2 4.62979 3.29305 38.2686 4.62979 3.29305 38.2686 0 0 0
148 50 1 10.506 5.65357 35.3908 10.506 5.65357 35.3908 0 0 0
149 50 2 9.55281 5.77165 35.2066 9.55281 5.77165 35.2066 0 0 0
150 50 2 10.5767 5.31816 36.2896 10.5767 5.31816 36.2896 0 0 0
151 51 1 3.87034 18.9212 42.3686 3.87034 18.9212 42.3686 0 0 0
152 51 2 4.28619 18.0442 42.315 4.28619 18.0442 42.315 0 0 0
153 51 2 4.48935 19.4642 42.8942 4.48935 19.4642 42.8942 0 0 0
154 52 1 1.76585 21.1953 38.4285 1.76585 21.1953 38.4285 0 0 0
155 52 2 1.79288 20.4149 39.0064 1.79288 20.4149 39.0064 0 0 0
156 52 2 1.44267 21.9067 39.0012 1.44267 21.9067 39.0012 0 0 0
157 53 1 22.6357 17.0633 43.37 22.6357 17.0633 43.37 0 0 0
158 53 2 21.8384 17.2551 42.8397 21.8384 17.2551 42.8397 0 0 0
159 53 2 23.2672 17.7102 43.0204 23.2672 17.7102 43.0204 0 0 0
160 54 1 10.3624 11.2158 43.5296 10.3624 11.2158 43.5296 0 0 0
161 54 2 10.4061 10.441 42.9513 10.4061 10.441 42.9513 0 0 0
162 54 2 9.48776 11.19 43.9448 9.48776 11.19 43.9448 0 0 0
163 55 1 2.21418 8.50569 43.7854 2.21418 8.50569 43.7854 0 0 0
164 55 2 2.93844 8.89542 43.2703 2.93844 8.89542 43.2703 0 0 0
165 55 2 1.38543 8.73599 43.3319 1.38543 8.73599 43.3319 0 0 0
166 56 1 4.63273 5.68974 49.2864 4.63273 5.68974 49.2864 0 0 0
167 56 2 4.37535 6.40048 48.6563 4.37535 6.40048 48.6563 0 0 0
168 56 2 4.11704 5.82129 50.0814 4.11704 5.82129 50.0814 0 0 0
169 57 1 4.20605 3.87993 47.1549 4.20605 3.87993 47.1549 0 0 0
170 57 2 3.39971 4.22829 46.7283 3.39971 4.22829 46.7283 0 0 0
171 57 2 4.3283 4.43985 47.9398 4.3283 4.43985 47.9398 0 0 0
172 58 1 5.71164 8.75517 40.2547 5.71164 8.75517 40.2547 0 0 0
173 58 2 5.65702 7.80462 40.0613 5.65702 7.80462 40.0613 0 0 0
174 58 2 6.66685 8.90338 40.3773 6.66685 8.90338 40.3773 0 0 0
175 59 1 2.03691 8.20093 27.7856 2.03691 8.20093 27.7856 0 0 0
176 59 2 2.29147 8.63286 26.942 2.29147 8.63286 26.942 0 0 0
177 59 2 1.2563 8.7031 28.0867 1.2563 8.7031 28.0867 0 0 0
178 60 1 10.343 2.71484 43.2237 10.343 2.71484 43.2237 0 0 0
179 60 2 9.46998 2.63001 43.6332 9.46998 2.63001 43.6332 0 0 0
180 60 2 10.1814 2.62497 42.2741 10.1814 2.62497 42.2741 0 0 0
181 61 1 11.838 23.7573 45.4861 11.838 23.7573 45.4861 0 0 0
182 61 2 11.2794 23.4838 46.238 11.2794 23.4838 46.238 0 0 0
183 61 2 12.751 23.5526 45.734 12.751 23.5526 45.734 0 0 0
184 62 1 1.47761 19.2279 43.4364 1.47761 19.2279 43.4364 0 0 0
185 62 2 2.37849 18.9324 43.183 2.37849 18.9324 43.183 0 0 0
186 62 2 1.45007 19.2642 44.412 1.45007 19.2642 44.412 0 0 0
187 63 1 8.95131 20.5274 35.0368 8.95131 20.5274 35.0368 0 0 0
188 63 2 7.98548 20.4139 35.0765 7.98548 20.4139 35.0765 0 0 0
189 63 2 9.22256 20.7815 35.9376 9.22256 20.7815 35.9376 0 0 0
190 64 1 14.9455 18.1404 43.8451 14.9455 18.1404 43.8451 0 0 0
191 64 2 14.5753 18.7679 43.1988 14.5753 18.7679 43.1988 0 0 0
192 64 2 15.2793 17.3797 43.3363 15.2793 17.3797 43.3363 0 0 0
193 65 1 2.78387 10.2109 33.4682 2.78387 10.2109 33.4682 0 0 0
194 65 2 2.98439 11.148 33.639 2.98439 11.148 33.639 0 0 0
195 65 2 2.15177 10.2529 32.7217 2.15177 10.2529 32.7217 0 0 0
196 66 1 2.81779 7.05227 38.2902 2.81779 7.05227 38.2902 0 0 0
197 66 2 2.7317 7.86981 38.8033 2.7317 7.86981 38.8033 0 0 0
198 66 2 2.10285 7.09167 37.6286 2.10285 7.09167 37.6286 0 0 0
199 67 1 5.17392 18.3157 32.9708 5.17392 18.3157 32.9708 0 0 0
200 67 2 5.17451 17.6128 33.6466 5.17451 17.6128 33.6466 0 0 0
201 67 2 5.75036 18.0156 32.2583 5.75036 18.0156 32.2583 0 0 0
202 68 1 23.7617 19.3683 42.2876 23.7617 19.3683 42.2876 0 0 0
203 68 2 24.5822 19.4866 42.7881 24.5822 19.4866 42.7881 0 0 0
204 68 2 23.0705 19.887 42.7265 23.0705 19.887 42.7265 0 0 0
205 69 1 4.8836 16.393 42.6982 4.8836 16.393 42.6982 0 0 0
206 69 2 5.3589 15.8306 42.063 5.3589 15.8306 42.063 0 0 0
207 69 2 4.05488 15.9531 42.9405 4.05488 15.9531 42.9405 0 0 0
208 70 1 5.27477 22.8095 35.4822 5.27477 22.8095 35.4822 0 0 0
209 70 2 4.95075 23.7092 35.6365 4.95075 23.7092 35.6365 0 0 0
210 70 2 4.94964 22.2851 36.2273 4.94964 22.2851 36.2273 0 0 0
211 71 1 15.6387 14.7003 48.5733 15.6387 14.7003 48.5733 0 0 0
212 71 2 16.0909 15.4998 48.8487 16.0909 15.4998 48.8487 0 0 0
213 71 2 15.5345 14.7788 47.6035 15.5345 14.7788 47.6035 0 0 0
214 72 1 7.81478 9.12236 29.2225 7.81478 9.12236 29.2225 0 0 0
215 72 2 8.01569 9.22979 28.281 8.01569 9.22979 28.281 0 0 0
216 72 2 7.00364 9.63774 29.3684 7.00364 9.63774 29.3684 0 0 0
217 73 1 13.3253 16.1847 42.0762 13.3253 16.1847 42.0762 0 0 0
218 73 2 13.0561 15.2886 42.31 13.0561 15.2886 42.31 0 0 0
219 73 2 12.7995 16.7711 42.6454 12.7995 16.7711 42.6454 0 0 0
220 74 1 12.3147 10.4674 36.3 12.3147 10.4674 36.3 0 0 0
221 74 2 11.9405 9.70609 35.8314 11.9405 9.70609 35.8314 0 0 0
222 74 2 13.0233 10.7953 35.7288 13.0233 10.7953 35.7288 0 0 0
223 75 1 10.1635 21.6139 37.2531 10.1635 21.6139 37.2531 0 0 0
224 75 2 10.1421 22.4009 36.6809 10.1421 22.4009 36.6809 0 0 0
225 75 2 11.0198 21.1651 37.1607 11.0198 21.1651 37.1607 0 0 0
226 76 1 16.7444 2.83068 33.9126 16.7444 2.83068 33.9126 0 0 0
227 76 2 16.4111 2.24042 33.2099 16.4111 2.24042 33.2099 0 0 0
228 76 2 16.9393 2.26644 34.6651 16.9393 2.26644 34.6651 0 0 0
229 77 1 19.3451 4.51172 29.4816 19.3451 4.51172 29.4816 0 0 0
230 77 2 19.5566 5.16981 30.162 19.5566 5.16981 30.162 0 0 0
231 77 2 18.3709 4.48586 29.4488 18.3709 4.48586 29.4488 0 0 0
232 78 1 17.1723 14.5631 33.5732 17.1723 14.5631 33.5732 0 0 0
233 78 2 17.0474 15.5079 33.7527 17.0474 15.5079 33.7527 0 0 0
234 78 2 17.9348 14.4956 32.9825 17.9348 14.4956 32.9825 0 0 0
235 79 1 17.2932 24.4361 34.1907 17.2932 24.4361 34.1907 0 0 0
236 79 2 17.4465 24.0731 33.3048 17.4465 24.0731 33.3048 0 0 0
237 79 2 18.0177 0.236661 34.3367 18.0177 25.0711 34.3367 0 0 0
238 80 1 15.4796 1.48369 31.8185 15.4796 1.48369 31.8185 0 0 0
239 80 2 14.951 0.870841 32.3496 14.951 0.870841 32.3496 0 0 0
240 80 2 14.8742 2.21484 31.5975 14.8742 2.21484 31.5975 0 0 0
241 81 1 1.4819 10.3875 35.8896 1.4819 10.3875 35.8896 0 0 0
242 81 2 1.93725 10.2679 35.0364 1.93725 10.2679 35.0364 0 0 0
243 81 2 1.66737 11.3031 36.1489 1.66737 11.3031 36.1489 0 0 0
244 82 1 4.46966 22.8562 43.9765 4.46966 22.8562 43.9765 0 0 0
245 82 2 4.05409 23.2213 43.1876 4.05409 23.2213 43.1876 0 0 0
246 82 2 3.7477 22.5899 44.571 3.7477 22.5899 44.571 0 0 0
247 83 1 9.28628 16.3777 42.767 9.28628 16.3777 42.767 0 0 0
248 83 2 8.49394 16.5338 43.3126 8.49394 16.5338 43.3126 0 0 0
249 83 2 9.93786 17.0231 43.0782 9.93786 17.0231 43.0782 0 0 0
250 84 1 20.518 18.8771 28.4567 20.518 18.8771 28.4567 0 0 0
251 84 2 20.2148 17.9672 28.3218 20.2148 17.9672 28.3218 0 0 0
252 84 2 20.081 19.4021 27.7594 20.081 19.4021 27.7594 0 0 0
253 85 1 22.9271 5.41265 29.4211 22.9271 5.41265 29.4211 0 0 0
254 85 2 22.7477 5.04213 30.3023 22.7477 5.04213 30.3023 0 0 0
255 85 2 22.2871 6.13041 29.2831 22.2871 6.13041 29.2831 0 0 0
256 86 1 16.4805 1.16433 48.2247 16.4805 1.16433 48.2247 0 0 0
257 86 2 16.708 0.249078 48.0012 16.708 0.249078 48.0012 0 0 0
258 86 2 17.314 1.6435 48.1399 17.314 1.6435 48.1399 0 0 0
259 87 1 4.08937 6.62299 34.0218 4.08937 6.62299 34.0218 0 0 0
260 87 2 4.33648 7.06573 34.8511 4.33648 7.06573 34.8511 0 0 0
261 87 2 4.28707 7.25844 33.3161 4.28707 7.25844 33.3161 0 0 0
262 88 1 12.0134 22.152 48.8103 12.0134 22.152 48.8103 0 0 0
263 88 2 12.8114 22.5828 48.4369 12.8114 22.5828 48.4369 0 0 0
264 88 2 12.1509 22.1003 49.7549 12.1509 22.1003 49.7549 0 0 0
265 89 1 17.2421 22.0885 32.2151 17.2421 22.0885 32.2151 0 0 0
266 89 2 17.4286 22.0297 31.2668 17.4286 22.0297 31.2668 0 0 0
267 89 2 16.353 21.707 32.3026 16.353 21.707 32.3026 0 0 0
268 90 1 19.8496 6.0934 31.747 19.8496 6.0934 31.747 0 0 0
269 90 2 20.0126 7.03043 31.9774 20.0126 7.03043 31.9774 0 0 0
270 90 2 18.9752 5.84036 32.092 18.9752 5.84036 32.092 0 0 0
271 91 1 22.2287 22.4469 37.3355 22.2287 22.4469 37.3355 0 0 0
272 91 2 23.027 22.9737 37.2572 23.027 22.9737 37.2572 0 0 0
273 91 2 22.4779 21.5522 37.0038 22.4779 21.5522 37.0038 0 0 0
274 92 1 21.6401 1.51588 27.2743 21.6401 1.51588 27.2743 0 0 0
275 92 2 22.1102 2.33638 27.0595 22.1102 2.33638 27.0595 0 0 0
276 92 2 20.7279 1.70263 26.9869 20.7279 1.70263 26.9869 0 0 0
277 93 1 5.69505 1.03308 41.1501 5.69505 1.03308 41.1501 0 0 0
278 93 2 6.29797 0.675212 41.8207 6.29797 0.675212 41.8207 0 0 0
279 93 2 5.91128 1.97752 41.1045 5.91128 1.97752 41.1045 0 0 0
280 94 1 9.80368 13.521 48.2092 9.80368 13.521 48.2092 0 0 0
281 94 2 10.6917 13.6154 47.8205 10.6917 13.6154 47.8205 0 0 0
282 94 2 9.89108 14.1225 48.9719 9.89108 14.1225 48.9719 0 0 0
283 95 1 11.4244 4.90163 29.5691 11.4244 4.90163 29.5691 0 0 0
284 95 2 10.7057 5.29833 29.0667 10.7057 5.29833 29.0667 0 0 0
285 95 2 11.0191 4.24472 30.1583 11.0191 4.24472 30.1583 0 0 0
286 96 1 6.76347 3.60184 41.4552 6.76347 3.60184 41.4552 0 0 0
287 96 2 6.55078 4.43234 40.9819 6.55078 4.43234 40.9819 0 0 0
288 96 2 6.49119 3.75745 42.3661 6.49119 3.75745 42.3661 0 0 0
289 97 1 23.3982 21.4182 34.03 23.3982 21.4182 34.03 0 0 0
290 97 2 22.8401 22.0415 33.5406 22.8401 22.0415 33.5406 0 0 0
291 97 2 24.309 21.5487 33.7471 24.309 21.5487 33.7471 0 0 0
292 98 1 3.20808 24.5461 41.5141 3.20808 -0.288365 41.5141 0 0 0
293 98 2 3.96053 0.264086 41.248 3.96053 0.264086 41.248 0 0 0
294 98 2 2.88374 0.18748 42.2976 2.88374 0.18748 42.2976 0 0 0
295 99 1 2.17584 15.6806 43.3982 2.17584 15.6806 43.3982 0 0 0
296 99 2 1.9239 16.1157 44.2281 1.9239 16.1157 44.2281 0 0 0
297 99 2 1.71677 16.1198 42.6678 1.71677 16.1198 42.6678 0 0 0
298 100 1 3.7097 4.58407 39.4113 3.7097 4.58407 39.4113 0 0 0
299 100 2 3.17384 4.25241 40.1514 3.17384 4.25241 40.1514 0 0 0
300 100 2 3.2247 5.31964 39.003 3.2247 5.31964 39.003 0 0 0
301 101 1 1.11804 10.414 31.3465 1.11804 10.414 31.3465 0 0 0
302 101 2 0.966358 9.45603 31.2304 0.966358 9.45603 31.2304 0 0 0
303 101 2 0.29498 10.758 31.7288 0.29498 10.758 31.7288 0 0 0
304 102 1 13.1353 19.0519 35.3946 13.1353 19.0519 35.3946 0 0 0
305 102 2 13.494 19.9541 35.3068 13.494 19.9541 35.3068 0 0 0
306 102 2 13.8875 18.4516 35.4025 13.8875 18.4516 35.4025 0 0 0
307 103 1 19.9733 19.4858 36.5646 19.9733 19.4858 36.5646 0 0 0
308 103 2 19.9206 19.5398 37.5371 19.9206 19.5398 37.5371 0 0 0
309 103 2 19.3011 20.0717 36.2025 19.3011 20.0717 36.2025 0 0 0
310 104 1 12.1082 20.0198 26.5507 12.1082 20.0198 26.5507 0 0 0
311 104 2 12.1228 20.0201 27.5227 12.1228 20.0201 27.5227 0 0 0
312 104 2 12.0925 19.0746 26.3317 12.0925 19.0746 26.3317 0 0 0
313 105 1 16.7102 2.75201 40.4059 16.7102 2.75201 40.4059 0 0 0
314 105 2 16.5385 3.58831 39.9408 16.5385 3.58831 39.9408 0 0 0
315 105 2 17.5178 2.34022 40.0175 17.5178 2.34022 40.0175 0 0 0
316 106 1 18.0209 10.4615 44.7569 18.0209 10.4615 44.7569 0 0 0
317 106 2 17.3373 9.98323 45.2552 17.3373 9.98323 45.2552 0 0 0
318 106 2 18.8759 10.1949 45.1193 18.8759 10.1949 45.1193 0 0 0
319 107 1 4.14439 3.08955 31.2359 4.14439 3.08955 31.2359 0 0 0
320 107 2 3.29539 3.53807 31.07 3.29539 3.53807 31.07 0 0 0
321 107 2 4.07747 2.17962 30.901 4.07747 2.17962 30.901 0 0 0
322 108 1 20.4017 0.171558 45.577 20.4017 25.006 45.577 0 0 0
323 108 2 20.5955 24.106 45.8721 20.5955 24.106 45.8721 0 0 0
324 108 2 19.994 0.659392 46.31 19.994 25.4938 46.31 0 0 0
325 109 1 21.2205 20.173 43.502 21.2205 20.173 43.502 0 0 0
326 109 2 20.6646 20.5126 42.7745 20.6646 20.5126 42.7745 0 0 0
327 109 2 21.1099 20.809 44.2203 21.1099 20.809 44.2203 0 0 0
328 110 1 22.4352 1.72246 30.0011 22.4352 1.72246 30.0011 0 0 0
329 110 2 23.2766 2.18237 29.823 23.2766 2.18237 29.823 0 0 0
330 110 2 22.0774 1.51101 29.1246 22.0774 1.51101 29.1246 0 0 0
331 111 1 18.4638 9.42683 38.8914 18.4638 9.42683 38.8914 0 0 0
332 111 2 18.5438 8.46536 38.8031 18.5438 8.46536 38.8031 0 0 0
333 111 2 17.7358 9.58854 39.5233 17.7358 9.58854 39.5233 0 0 0
334 112 1 18.0097 8.78964 34.3244 18.0097 8.78964 34.3244 0 0 0
335 112 2 17.297 8.88047 33.6707 17.297 8.88047 33.6707 0 0 0
336 112 2 18.6722 9.41759 34.0225 18.6722 9.41759 34.0225 0 0 0
337 113 1 21.6417 23.304 32.9667 21.6417 23.304 32.9667 0 0 0
338 113 2 22.0967 24.148 32.7913 22.0967 24.148 32.7913 0 0 0
339 113 2 21.0389 23.1637 32.2111 21.0389 23.1637 32.2111 0 0 0
340 114 1 9.44181 23.5167 35.4657 9.44181 23.5167 35.4657 0 0 0
341 114 2 8.78163 23.06 34.9342 8.78163 23.06 34.9342 0 0 0
342 114 2 9.084 24.3999 35.6684 9.084 24.3999 35.6684 0 0 0
343 115 1 4.34323 8.16887 29.3267 4.34323 8.16887 29.3267 0 0 0
344 115 2 4.30172 8.47971 30.2465 4.30172 8.47971 30.2465 0 0 0
345 115 2 3.45163 8.2805 28.9584 3.45163 8.2805 28.9584 0 0 0
346 116 1 1.44116 7.50483 46.403 1.44116 7.50483 46.403 0 0 0
347 116 2 0.575224 7.93562 46.3984 0.575224 7.93562 46.3984 0 0 0
348 116 2 1.84937 7.81581 45.5858 1.84937 7.81581 45.5858 0 0 0
349 117 1 23.5012 20.2017 46.0724 23.5012 20.2017 46.0724 0 0 0
350 117 2 22.8656 19.4673 46.0127 22.8656 19.4673 46.0127 0 0 0
351 117 2 23.4651 20.6637 45.2238 23.4651 20.6637 45.2238 0 0 0
352 118 1 11.6897 15.3048 28.4208 11.6897 15.3048 28.4208 0 0 0
353 118 2 12.6439 15.481 28.3162 12.6439 15.481 28.3162 0 0 0
354 118 2 11.5182 14.4952 27.913 11.5182 14.4952 27.913 0 0 0
355 119 1 14.4793 8.46007 35.0468 14.4793 8.46007 35.0468 0 0 0
356 119 2 15.1698 7.80165 35.2529 15.1698 7.80165 35.2529 0 0 0
357 119 2 14.7386 9.226 35.5804 14.7386 9.226 35.5804 0 0 0
358 120 1 11.6456 17.1996 26.2283 11.6456 17.1996 26.2283 0 0 0
359 120 2 12.1232 16.541 25.706 12.1232 16.541 25.706 0 0 0
360 120 2 11.4961 16.7415 27.0706 11.4961 16.7415 27.0706 0 0 0
361 121 1 9.46069 4.59739 45.6659 9.46069 4.59739 45.6659 0 0 0
362 121 2 9.79117 4.8495 46.545 9.79117 4.8495 46.545 0 0 0
363 121 2 9.18228 3.67849 45.7156 9.18228 3.67849 45.7156 0 0 0
364 122 1 5.78995 6.67796 43.0636 5.78995 6.67796 43.0636 0 0 0
365 122 2 5.48589 7.60641 43.1038 5.48589 7.60641 43.1038 0 0 0
366 122 2 6.67554 6.69146 43.4719 6.67554 6.69146 43.4719 0 0 0
367 123 1 7.28057 18.7544 37.6504 7.28057 18.7544 37.6504 0 0 0
368 123 2 7.26277 19.7102 37.8431 7.26277 19.7102 37.8431 0 0 0
369 123 2 7.02038 18.7029 36.7186 7.02038 18.7029 36.7186 0 0 0
370 124 1 1.19418 20.5509 35.7743 1.19418 20.5509 35.7743 0 0 0
371 124 2 1.31307 21.3346 35.2243 1.31307 21.3346 35.2243 0 0 0
372 124 2 1.23852 20.8339 36.7016 1.23852 20.8339 36.7016 0 0 0
373 125 1 8.54444 13.676 35.7312 8.54444 13.676 35.7312 0 0 0
374 125 2 8.42827 14.6413 35.8141 8.42827 14.6413 35.8141 0 0 0
375 125 2 7.64901 13.3151 35.7578 7.64901 13.3151 35.7578 0 0 0
376 126 1 20.4407 2.76174 43.3072 20.4407 2.76174 43.3072 0 0 0
377 126 2 19.7589 3.25555 42.8356 19.7589 3.25555 42.8356 0 0 0
378 126 2 20.8036 2.15035 42.6486 20.8036 2.15035 42.6486 0 0 0
379 127 1 13.2257 16.8588 33.2082 13.2257 16.8588 33.2082 0 0 0
380 127 2 12.7511 16.0179 33.0556 12.7511 16.0179 33.0556 0 0 0
381 127 2 13.6089 16.7488 34.0879 13.6089 16.7488 34.0879 0 0 0
382 128 1 17.5226 11.6568 31.5528 17.5226 11.6568 31.5528 0 0 0
383 128 2 18.2157 12.2529 31.8882 18.2157 12.2529 31.8882 0 0 0
384 128 2 17.0353 11.3846 32.3383 17.0353 11.3846 32.3383 0 0 0
385 129 1 2.92969 4.33033 36.1203 2.92969 4.33033 36.1203 0 0 0
386 129 2 3.64584 3.89166 36.6073 3.64584 3.89166 36.6073 0 0 0
387 129 2 3.1687 4.1273 35.2055 3.1687 4.1273 35.2055 0 0 0
388 130 1 12.7008 7.33361 36.8621 12.7008 7.33361 36.8621 0 0 0
389 130 2 13.1958 7.71025 36.1152 13.1958 7.71025 36.1152 0 0 0
390 130 2 12.7011 6.36541 36.7559 12.7011 6.36541 36.7559 0 0 0
391 131 1 4.39237 0.624432 29.9294 4.39237 0.624432 29.9294 0 0 0
392 131 2 4.32916 0.968492 29.0148 4.32916 0.968492 29.0148 0 0 0
393 131 2 5.25106 0.192649 30.0032 5.25106 0.192649 30.0032 0 0 0
394 132 1 13.2651 22.6446 42.2686 13.2651 22.6446 42.2686 0 0 0
395 132 2 13.7573 22.978 41.492 13.7573 22.978 41.492 0 0 0
396 132 2 12.3481 22.9032 42.093 12.3481 22.9032 42.093 0 0 0
397 133 1 4.6367 3.89587 33.855 4.6367 3.89587 33.855 0 0 0
398 133 2 4.55586 4.86323 33.7923 4.55586 4.86323 33.7923 0 0 0
399 133 2 4.44814 3.54507 32.9674 4.44814 3.54507 32.9674 0 0 0
400 134 1 4.41807 10.7877 36.8308 4.41807 10.7877 36.8308 0 0 0
401 134 2 5.08357 11.3987 37.1873 5.08357 11.3987 37.1873 0 0 0
402 134 2 3.7828 10.6743 37.5432 3.7828 10.6743 37.5432 0 0 0
403 135 1 11.1237 8.64044 38.7363 11.1237 8.64044 38.7363 0 0 0
404 135 2 11.6675 8.34363 37.9903 11.6675 8.34363 37.9903 0 0 0
405 135 2 10.3111 8.1088 38.6831 10.3111 8.1088 38.6831 0 0 0
406 136 1 19.8714 7.1074 44.5447 19.8714 7.1074 44.5447 0 0 0
407 136 2 19.7346 7.41528 45.4589 19.7346 7.41528 45.4589 0 0 0
408 136 2 19.3238 7.68139 43.9758 19.3238 7.68139 43.9758 0 0 0
409 137 1 15.2351 9.61971 49.8354 15.2351 9.61971 49.8354 0 0 0
410 137 2 16.1618 9.78925 50.0094 16.1618 9.78925 50.0094 0 0 0
411 137 2 14.8668 10.4551 49.5052 14.8668 10.4551 49.5052 0 0 0
412 138 1 15.402 3.97562 46.8786 15.402 3.97562 46.8786 0 0 0
413 138 2 15.8642 3.35474 46.2851 15.8642 3.35474 46.2851 0 0 0
414 138 2 15.0544 3.4572 47.6048 15.0544 3.4572 47.6048 0 0 0
415 139 1 12.2559 10.7374 45.3791 12.2559 10.7374 45.3791 0 0 0
416 139 2 11.5904 10.9261 44.6802 11.5904 10.9261 44.6802 0 0 0
417 139 2 12.6503 9.88193 45.1393 12.6503 9.88193 45.1393 0 0 0
418 140 1 10.271 23.4955 32.2891 10.271 23.4955 32.2891 0 0 0
419 140 2 10.1592 23.4661 31.3203 10.1592 23.4661 31.3203 0 0 0
420 140 2 10.5275 24.3988 32.5558 10.5275 24.3988 32.5558 0 0 0
421 141 1 19.5659 20.183 30.7877 19.5659 20.183 30.7877 0 0 0
422 141 2 20.0402 19.8692 31.5791 20.0402 19.8692 31.5791 0 0 0
423 141 2 19.97 19.7305 30.0255 19.97 19.7305 30.0255 0 0 0
424 142 1 10.2306 5.3794 48.2339 10.2306 5.3794 48.2339 0 0 0
425 142 2 10.6048 4.49301 48.3754 10.6048 4.49301 48.3754 0 0 0
426 142 2 9.35685 5.38804 48.6496 9.35685 5.38804 48.6496 0 0 0
427 143 1 21.0384 7.44616 39.5143 21.0384 7.44616 39.5143 0 0 0
428 143 2 21.7946 6.85428 39.6088 21.7946 6.85428 39.6088 0 0 0
429 143 2 21.0741 7.77928 38.6055 21.0741 7.77928 38.6055 0 0 0
430 144 1 22.7302 4.14019 27.0021 22.7302 4.14019 27.0021 0 0 0
431 144 2 22.8407 4.43455 27.928 22.8407 4.43455 27.928 0 0 0
432 144 2 23.5923 4.27479 26.6026 23.5923 4.27479 26.6026 0 0 0
433 145 1 16.5978 9.80554 36.6381 16.5978 9.80554 36.6381 0 0 0
434 145 2 17.0457 9.47922 37.4302 17.0457 9.47922 37.4302 0 0 0
435 145 2 17.1298 9.45806 35.9029 17.1298 9.45806 35.9029 0 0 0
436 146 1 21.6222 14.4887 26.2989 21.6222 14.4887 26.2989 0 0 0
437 146 2 22.3494 15.0136 26.6998 22.3494 15.0136 26.6998 0 0 0
438 146 2 21.8954 14.3191 25.3975 21.8954 14.3191 25.3975 0 0 0
439 147 1 6.26478 11.3246 41.6872 6.26478 11.3246 41.6872 0 0 0
440 147 2 7.12366 11.7101 41.9385 7.12366 11.7101 41.9385 0 0 0
441 147 2 6.33105 11.2297 40.7333 6.33105 11.2297 40.7333 0 0 0
442 148 1 14.7857 13.8508 36.2789 14.7857 13.8508 36.2789 0 0 0
443 148 2 14.6009 13.066 35.7375 14.6009 13.066 35.7375 0 0 0
444 148 2 15.6126 13.6375 36.7362 15.6126 13.6375 36.7362 0 0 0
445 149 1 17.8236 14.2605 40.1706 17.8236 14.2605 40.1706 0 0 0
446 149 2 17.924 13.8269 39.3148 17.924 13.8269 39.3148 0 0 0
447 149 2 17.5384 13.5466 40.7729 17.5384 13.5466 40.7729 0 0 0
448 150 1 2.81413 9.55145 25.5838 2.81413 9.55145 25.5838 0 0 0
449 150 2 3.53061 9.099 25.127 3.53061 9.099 25.127 0 0 0
450 150 2 3.22015 10.292 26.052 3.22015 10.292 26.052 0 0 0
451 151 1 19.9814 22.9403 30.7899 19.9814 22.9403 30.7899 0 0 0
452 151 2 19.6357 22.0315 30.7887 19.6357 22.0315 30.7887 0 0 0
453 151 2 19.2392 23.5665 30.8798 19.2392 23.5665 30.8798 0 0 0
454 152 1 18.2068 0.155268 31.3043 18.2068 0.155268 31.3043 0 0 0
455 152 2 17.3156 0.485675 31.1513 17.3156 0.485675 31.1513 0 0 0
456 152 2 18.7926 0.935778 31.2527 18.7926 0.935778 31.2527 0 0 0
457 153 1 6.26976 5.18855 27.7861 6.26976 5.18855 27.7861 0 0 0
458 153 2 6.53705 4.87681 28.6638 6.53705 4.87681 28.6638 0 0 0
459 153 2 6.89999 5.87057 27.508 6.89999 5.87057 27.508 0 0 0
460 154 1 3.07297 5.84553 43.5046 3.07297 5.84553 43.5046 0 0 0
461 154 2 4.03472 5.92562 43.4544 4.03472 5.92562 43.4544 0 0 0
462 154 2 2.74686 6.76239 43.5268 2.74686 6.76239 43.5268 0 0 0
463 155 1 10.9157 17.6963 48.0973 10.9157 17.6963 48.0973 0 0 0
464 155 2 11.8018 17.296 48.1247 11.8018 17.296 48.1247 0 0 0
465 155 2 10.5061 17.3545 47.2823 10.5061 17.3545 47.2823 0 0 0
466 156 1 5.84917 11.1311 29.4569 5.84917 11.1311 29.4569 0 0 0
467 156 2 5.37419 11.4208 30.2552 5.37419 11.4208 30.2552 0 0 0
468 156 2 6.6698 11.6487 29.4846 6.6698 11.6487 29.4846 0 0 0
469 157 1 14.6464 11.9447 45.8594 14.6464 11.9447 45.8594 0 0 0
470 157 2 13.7619 11.8582 45.4701 13.7619 11.8582 45.4701 0 0 0
471 157 2 14.9191 12.8689 45.761 14.9191 12.8689 45.761 0 0 0
472 158 1 6.79533 22.1647 41.5904 6.79533 22.1647 41.5904 0 0 0
473 158 2 6.90703 22.8671 42.258 6.90703 22.8671 42.258 0 0 0
474 158 2 7.4192 21.4572 41.8081 7.4192 21.4572 41.8081 0 0 0
475 159 1 3.46075 19.1385 35.0325 3.46075 19.1385 35.0325 0 0 0
476 159 2 2.74167 19.6076 35.4825 2.74167 19.6076 35.4825 0 0 0