LAMMPS data file — 125 H2O air/water slab  15.5215 × 15.5215 × 46.5646 Å  z_mult=3.0  (generated by build_slab.py)

375 atoms
2 atom types
250 bonds
1 bond types
125 angles
1 angle types

0 15.521529 xlo xhi
0 15.521529 ylo yhi
0 46.564587 zlo zhi

Masses

1 15.9994
2 1.00794

Atoms # full

     1      1 1  -1.1128     8.67600000     9.40700000    17.35152900 0 0 0
     2      1 2   0.5564     8.39300000    10.29200000    17.72052900 0 0 0
     3      1 2   0.5564     8.85000000     8.77200000    18.10352900 0 0 0
     4      2 1  -1.1128     6.29300000     9.41300000    29.42852900 0 0 0
     5      2 2   0.5564     6.60100000     8.70600000    30.06552900 0 0 0
     6      2 2   0.5564     5.84400000    10.14700000    29.93752900 0 0 0
     7      3 1  -1.1128    13.37000000     4.96200000    19.62352900 0 0 0
     8      3 2   0.5564    13.34600000     5.38200000    20.53052900 0 0 0
     9      3 2   0.5564    14.30700000     4.97400000    19.27552900 0 0 0
    10      4 1  -1.1128    11.08500000     2.86400000    28.01252900 0 0 0
    11      4 2   0.5564    10.19900000     3.32500000    28.05552900 0 0 0
    12      4 2   0.5564    11.75700000     3.47200000    27.59152900 0 0 0
    13      5 1  -1.1128     3.33100000    13.33700000    23.97152900 0 0 0
    14      5 2   0.5564     2.43200000    13.07600000    24.32352900 0 0 0
    15      5 2   0.5564     3.38800000    14.33300000    23.90652900 0 0 0
    16      6 1  -1.1128     3.90000000    10.09900000    21.69552900 0 0 0
    17      6 2   0.5564     3.96100000     9.16200000    21.34852900 0 0 0
    18      6 2   0.5564     4.79600000    10.53700000    21.63152900 0 0 0
    19      7 1  -1.1128     9.62400000     8.05100000    20.85252900 0 0 0
    20      7 2   0.5564     8.70800000     7.65000000    20.81752900 0 0 0
    21      7 2   0.5564    10.30400000     7.32400000    20.92952900 0 0 0
    22      8 1  -1.1128     5.90100000     1.64800000    24.26752900 0 0 0
    23      8 2   0.5564     6.82300000     1.25900000    24.26952900 0 0 0
    24      8 2   0.5564     5.96100000     2.64600000    24.27852900 0 0 0
    25      9 1  -1.1128     4.62200000    13.92200000    26.36752900 0 0 0
    26      9 2   0.5564     5.50400000    14.03100000    25.90852900 0 0 0
    27      9 2   0.5564     4.50100000    12.96700000    26.63752900 0 0 0
    28     10 1  -1.1128     2.64900000     1.76900000    24.53952900 0 0 0
    29     10 2   0.5564     2.29200000     2.69600000    24.65352900 0 0 0
    30     10 2   0.5564     3.63100000     1.81000000    24.35452900 0 0 0
    31     11 1  -1.1128     6.19400000    13.70400000    23.78952900 0 0 0
    32     11 2   0.5564     6.94300000    13.05700000    23.93552900 0 0 0
    33     11 2   0.5564     6.56100000    14.56600000    23.44152900 0 0 0
    34     12 1  -1.1128     6.42900000     8.77600000    20.12652900 0 0 0
    35     12 2   0.5564     7.06800000     8.96400000    19.38052900 0 0 0
    36     12 2   0.5564     5.49100000     8.88100000    19.79752900 0 0 0
    37     13 1  -1.1128     1.32100000     8.03700000    20.60952900 0 0 0
    38     13 2   0.5564     2.31300000     7.98000000    20.49652900 0 0 0
    39     13 2   0.5564     1.00000000     8.93200000    20.30152900 0 0 0
    40     14 1  -1.1128     1.86700000    12.50700000    17.19452900 0 0 0
    41     14 2   0.5564     2.03500000    13.32300000    16.64052900 0 0 0
    42     14 2   0.5564     1.37400000    11.82900000    16.64952900 0 0 0
    43     15 1  -1.1128     6.88800000    14.52100000    28.11552900 0 0 0
    44     15 2   0.5564     7.47200000    13.71600000    28.01652900 0 0 0
    45     15 2   0.5564     5.93700000    14.23300000    28.22152900 0 0 0
    46     16 1  -1.1128    13.36300000    13.79900000    17.85252900 0 0 0
    47     16 2   0.5564    12.56400000    13.55500000    18.40252900 0 0 0
    48     16 2   0.5564    13.14000000    13.70900000    16.88152900 0 0 0
    49     17 1  -1.1128     9.52100000     1.07700000    25.23252900 0 0 0
    50     17 2   0.5564     8.59000000     0.99700000    25.58952900 0 0 0
    51     17 2   0.5564     9.50500000     0.99300000    24.23752900 0 0 0
    52     18 1  -1.1128     2.48300000     1.08900000    19.16352900 0 0 0
    53     18 2   0.5564     2.20700000     1.76200000    18.47652900 0 0 0
    54     18 2   0.5564     3.04100000     1.53500000    19.86152900 0 0 0
    55     19 1  -1.1128     7.53700000     1.53300000    20.30152900 0 0 0
    56     19 2   0.5564     8.28600000     1.01000000    20.70852900 0 0 0
    57     19 2   0.5564     6.69400000     1.00000000    20.34852900 0 0 0
    58     20 1  -1.1128     6.69800000     8.68000000    16.72352900 0 0 0
    59     20 2   0.5564     7.10900000     7.85800000    17.11952900 0 0 0
    60     20 2   0.5564     5.73500000     8.50700000    16.52052900 0 0 0
    61     21 1  -1.1128     6.53200000     9.18800000    25.82252900 0 0 0
    62     21 2   0.5564     5.55800000     9.34300000    25.98852900 0 0 0
    63     21 2   0.5564     6.66100000     8.28400000    25.41652900 0 0 0
    64     22 1  -1.1128    13.86100000     7.34200000    22.91252900 0 0 0
    65     22 2   0.5564    14.01200000     6.35400000    22.88352900 0 0 0
    66     22 2   0.5564    12.88800000     7.53500000    22.78452900 0 0 0
    67     23 1  -1.1128     6.72100000     8.08200000    27.71152900 0 0 0
    68     23 2   0.5564     7.55600000     7.94900000    28.24452900 0 0 0
    69     23 2   0.5564     5.96900000     7.58100000    28.13852900 0 0 0
    70     24 1  -1.1128     5.96300000     7.22400000    22.13452900 0 0 0
    71     24 2   0.5564     5.28700000     7.41300000    21.42252900 0 0 0
    72     24 2   0.5564     6.82600000     6.94900000    21.71252900 0 0 0
    73     25 1  -1.1128    13.45100000     3.76000000    24.22152900 0 0 0
    74     25 2   0.5564    13.34700000     4.32200000    23.40152900 0 0 0
    75     25 2   0.5564    13.15700000     2.82500000    24.02552900 0 0 0
    76     26 1  -1.1128     3.19600000    13.12900000    18.83952900 0 0 0
    77     26 2   0.5564     3.91400000    12.86600000    19.48452900 0 0 0
    78     26 2   0.5564     2.68500000    13.90600000    19.20652900 0 0 0
    79     27 1  -1.1128     8.21300000     1.93100000    22.70352900 0 0 0
    80     27 2   0.5564     7.62800000     2.72900000    22.84552900 0 0 0
    81     27 2   0.5564     9.13300000     2.23100000    22.45752900 0 0 0
    82     28 1  -1.1128    12.15000000    13.12900000    22.78152900 0 0 0
    83     28 2   0.5564    11.87900000    14.03900000    23.09752900 0 0 0
    84     28 2   0.5564    13.09600000    13.15500000    22.46152900 0 0 0
    85     29 1  -1.1128     3.46800000     5.67700000    19.54852900 0 0 0
    86     29 2   0.5564     3.80300000     6.39800000    20.15552900 0 0 0
    87     29 2   0.5564     4.11100000     4.91100000    19.55352900 0 0 0
    88     30 1  -1.1128     9.94100000    13.89900000    26.79252900 0 0 0
    89     30 2   0.5564    10.20700000    14.51700000    26.05252900 0 0 0
    90     30 2   0.5564     9.18900000    13.31600000    26.48652900 0 0 0
    91     31 1  -1.1128    12.69000000     5.41500000    27.04752900 0 0 0
    92     31 2   0.5564    13.44900000     6.06300000    26.97852900 0 0 0
    93     31 2   0.5564    12.57700000     4.94000000    26.17552900 0 0 0
    94     32 1  -1.1128     8.98800000    13.09100000    23.12852900 0 0 0
    95     32 2   0.5564     8.80100000    14.06900000    23.23152900 0 0 0
    96     32 2   0.5564     9.97000000    12.95000000    23.00952900 0 0 0
    97     33 1  -1.1128     2.54000000     7.59700000    23.23352900 0 0 0
    98     33 2   0.5564     3.15300000     7.44600000    22.45852900 0 0 0
    99     33 2   0.5564     2.86100000     7.07200000    24.02052900 0 0 0
   100     34 1  -1.1128     9.35800000     0.99800000    28.67952900 0 0 0
   101     34 2   0.5564     9.26600000     1.35800000    27.75152900 0 0 0
   102     34 2   0.5564     8.47300000     1.03700000    29.14252900 0 0 0
   103     35 1  -1.1128     2.97300000     9.48200000    24.80252900 0 0 0
   104     35 2   0.5564     2.24600000     8.87200000    25.11852900 0 0 0
   105     35 2   0.5564     3.80900000     8.95600000    24.65252900 0 0 0
   106     36 1  -1.1128     4.50000000    11.54600000    24.47952900 0 0 0
   107     36 2   0.5564     4.31200000    10.89400000    23.74452900 0 0 0
   108     36 2   0.5564     4.34800000    11.10400000    25.36352900 0 0 0
   109     37 1  -1.1128    12.38200000     9.21900000    29.06852900 0 0 0
   110     37 2   0.5564    12.57900000     9.15800000    30.04752900 0 0 0
   111     37 2   0.5564    11.89100000    10.06800000    28.87952900 0 0 0
   112     38 1  -1.1128     1.00000000     8.31500000    27.19252900 0 0 0
   113     38 2   0.5564     1.35300000     7.39300000    27.03552900 0 0 0
   114     38 2   0.5564     1.58000000     8.78700000    27.85552900 0 0 0
   115     39 1  -1.1128     4.06900000     7.73500000    29.70752900 0 0 0
   116     39 2   0.5564     4.21300000     8.71700000    29.58352900 0 0 0
   117     39 2   0.5564     4.90900000     7.31400000    30.04752900 0 0 0
   118     40 1  -1.1128     4.87000000     7.07600000    25.07052900 0 0 0
   119     40 2   0.5564     4.46200000     6.27100000    25.50152900 0 0 0
   120     40 2   0.5564     5.05100000     6.88300000    24.10652900 0 0 0
   121     41 1  -1.1128    12.27800000     8.48500000    19.81252900 0 0 0
   122     41 2   0.5564    12.21000000     7.48800000    19.84852900 0 0 0
   123     41 2   0.5564    11.36100000     8.88100000    19.79252900 0 0 0
   124     42 1  -1.1128     9.68400000     8.11900000    27.73552900 0 0 0
   125     42 2   0.5564     9.59300000     7.15400000    27.98552900 0 0 0
   126     42 2   0.5564    10.55700000     8.26300000    27.27252900 0 0 0
   127     43 1  -1.1128     9.18700000     5.87700000    22.15352900 0 0 0
   128     43 2   0.5564     9.05800000     6.56500000    22.86752900 0 0 0
   129     43 2   0.5564     8.33200000     5.37800000    22.01252900 0 0 0
   130     44 1  -1.1128    12.19800000     1.18300000    22.86252900 0 0 0
   131     44 2   0.5564    11.94100000     0.99900000    23.81152900 0 0 0
   132     44 2   0.5564    13.17500000     1.01300000    22.74352900 0 0 0
   133     45 1  -1.1128     2.13800000     1.78200000    28.82652900 0 0 0
   134     45 2   0.5564     1.38900000     1.11900000    28.84252900 0 0 0
   135     45 2   0.5564     1.79200000     2.68100000    29.09452900 0 0 0
   136     46 1  -1.1128     8.95700000    10.00300000    21.61652900 0 0 0
   137     46 2   0.5564     8.07300000     9.71500000    21.24952900 0 0 0
   138     46 2   0.5564     8.86700000    10.90700000    22.03452900 0 0 0
   139     47 1  -1.1128    13.28700000    13.20900000    24.66052900 0 0 0
   140     47 2   0.5564    14.05000000    12.76600000    25.13152900 0 0 0
   141     47 2   0.5564    12.42800000    12.78200000    24.94052900 0 0 0
   142     48 1  -1.1128     5.27300000     6.16400000    18.12652900 0 0 0
   143     48 2   0.5564     5.31100000     6.99900000    18.67652900 0 0 0
   144     48 2   0.5564     6.17900000     5.97000000    17.75252900 0 0 0
   145     49 1  -1.1128     3.99400000    11.66300000    17.11752900 0 0 0
   146     49 2   0.5564     3.43900000    11.08200000    16.52152900 0 0 0
   147     49 2   0.5564     4.85300000    11.19900000    17.32952900 0 0 0
   148     50 1  -1.1128    12.94700000     0.92600000    26.15352900 0 0 0
   149     50 2   0.5564    12.07300000     1.40500000    26.06252900 0 0 0
   150     50 2   0.5564    13.51000000     1.10400000    25.34752900 0 0 0
   151     51 1  -1.1128    12.33300000    14.01800000    20.58652900 0 0 0
   152     51 2   0.5564    11.56100000    14.52200000    20.97552900 0 0 0
   153     51 2   0.5564    12.08700000    13.05400000    20.49052900 0 0 0
   154     52 1  -1.1128     8.69600000     7.52400000    25.17452900 0 0 0
   155     52 2   0.5564     9.65900000     7.74500000    25.01752900 0 0 0
   156     52 2   0.5564     8.60400000     7.02300000    26.03452900 0 0 0
   157     53 1  -1.1128     3.46900000    11.75000000    28.57252900 0 0 0
   158     53 2   0.5564     2.67900000    11.42700000    29.09452900 0 0 0
   159     53 2   0.5564     4.27600000    11.21900000    28.82752900 0 0 0
   160     54 1  -1.1128    13.87900000     8.54100000    26.91752900 0 0 0
   161     54 2   0.5564    12.89400000     8.69800000    26.98652900 0 0 0
   162     54 2   0.5564    14.36900000     9.29600000    27.35152900 0 0 0
   163     55 1  -1.1128     4.64600000     3.44600000    25.84852900 0 0 0
   164     55 2   0.5564     5.18300000     3.38000000    26.69052900 0 0 0
   165     55 2   0.5564     3.69000000     3.62400000    26.07652900 0 0 0
   166     56 1  -1.1128     1.88200000    10.93500000    21.93852900 0 0 0
   167     56 2   0.5564     1.02800000    11.15800000    22.40952900 0 0 0
   168     56 2   0.5564     2.41600000    11.76900000    21.80352900 0 0 0
   169     57 1  -1.1128     4.15400000     4.80700000    30.04252900 0 0 0
   170     57 2   0.5564     5.10300000     5.12300000    30.03052900 0 0 0
   171     57 2   0.5564     3.53900000     5.59400000    30.00652900 0 0 0
   172     58 1  -1.1128     5.97200000     4.71500000    20.98052900 0 0 0
   173     58 2   0.5564     6.51700000     4.19500000    21.63852900 0 0 0
   174     58 2   0.5564     5.25600000     5.21700000    21.46452900 0 0 0
   175     59 1  -1.1128     9.03200000    11.17700000    24.21052900 0 0 0
   176     59 2   0.5564     8.36900000    10.43100000    24.13952900 0 0 0
   177     59 2   0.5564     8.72800000    11.82800000    24.90552900 0 0 0
   178     60 1  -1.1128     1.62900000     6.54600000    29.04752900 0 0 0
   179     60 2   0.5564     1.43700000     6.85400000    29.97952900 0 0 0
   180     60 2   0.5564     1.08800000     5.73000000    28.84752900 0 0 0
   181     61 1  -1.1128    14.55100000     7.97300000    24.90252900 0 0 0
   182     61 2   0.5564    13.96700000     7.20800000    25.17652900 0 0 0
   183     61 2   0.5564    13.98000000     8.73800000    24.60552900 0 0 0
   184     62 1  -1.1128    13.48800000    11.65300000    29.42052900 0 0 0
   185     62 2   0.5564    14.18800000    12.35900000    29.52652900 0 0 0
   186     62 2   0.5564    13.92300000    10.75300000    29.39552900 0 0 0
   187     63 1  -1.1128    13.15400000     1.57300000    28.53852900 0 0 0
   188     63 2   0.5564    13.95500000     0.99800000    28.70652900 0 0 0
   189     63 2   0.5564    12.38000000     0.99700000    28.27752900 0 0 0
   190     64 1  -1.1128     8.04000000    10.69900000    30.03552900 0 0 0
   191     64 2   0.5564     7.60500000    11.60000000    30.02352900 0 0 0
   192     64 2   0.5564     8.85600000    10.71500000    29.45852900 0 0 0
   193     65 1  -1.1128     9.22500000     3.35100000    20.56752900 0 0 0
   194     65 2   0.5564     8.40000000     3.89000000    20.39852900 0 0 0
   195     65 2   0.5564     9.36300000     2.70700000    19.81552900 0 0 0
   196     66 1  -1.1128    12.01300000    10.55400000    21.05852900 0 0 0
   197     66 2   0.5564    12.24500000    10.89000000    20.14552900 0 0 0
   198     66 2   0.5564    11.44000000    11.22600000    21.52652900 0 0 0
   199     67 1  -1.1128     3.64600000     4.39200000    16.95252900 0 0 0
   200     67 2   0.5564     4.27300000     5.04200000    16.52152900 0 0 0
   201     67 2   0.5564     2.72600000     4.52200000    16.58452900 0 0 0
   202     68 1  -1.1128    14.52300000     7.10300000    19.83852900 0 0 0
   203     68 2   0.5564    14.28200000     7.82600000    19.19052900 0 0 0
   204     68 2   0.5564    14.31900000     7.40700000    20.76852900 0 0 0
   205     69 1  -1.1128     7.05100000     2.95000000    28.45752900 0 0 0
   206     69 2   0.5564     6.60400000     3.83100000    28.30652900 0 0 0
   207     69 2   0.5564     8.04200000     3.06500000    28.40652900 0 0 0
   208     70 1  -1.1128     7.60100000     2.94900000    25.79952900 0 0 0
   209     70 2   0.5564     8.48700000     3.09200000    26.23952900 0 0 0
   210     70 2   0.5564     7.11600000     3.82100000    25.73552900 0 0 0
   211     71 1  -1.1128     6.08900000    11.27000000    19.38552900 0 0 0
   212     71 2   0.5564     6.61200000    10.96100000    20.18052900 0 0 0
   213     71 2   0.5564     5.12700000    11.02800000    19.50352900 0 0 0
   214     72 1  -1.1128     6.91200000    12.35600000    21.85352900 0 0 0
   215     72 2   0.5564     5.94800000    12.32500000    22.11652900 0 0 0
   216     72 2   0.5564     7.20300000    13.30700000    21.76052900 0 0 0
   217     73 1  -1.1128     6.37300000     9.41500000    23.18252900 0 0 0
   218     73 2   0.5564     5.42700000     9.09200000    23.15852900 0 0 0
   219     73 2   0.5564     6.38500000    10.41400000    23.18852900 0 0 0
   220     74 1  -1.1128     8.86300000    12.55700000    16.70952900 0 0 0
   221     74 2   0.5564     7.99900000    12.09000000    16.51952900 0 0 0
   222     74 2   0.5564     9.59500000    11.88200000    16.79252900 0 0 0
   223     75 1  -1.1128     9.82400000     8.02700000    29.98952900 0 0 0
   224     75 2   0.5564    10.40700000     8.83900000    29.95652900 0 0 0
   225     75 2   0.5564    10.39600000     7.20800000    30.03252900 0 0 0
   226     76 1  -1.1128     9.94400000     8.57400000    22.96452900 0 0 0
   227     76 2   0.5564    10.74400000     7.97400000    22.98252900 0 0 0
   228     76 2   0.5564    10.18200000     9.46000000    23.36152900 0 0 0
   229     77 1  -1.1128     1.02700000    14.11600000    21.90352900 0 0 0
   230     77 2   0.5564     1.89100000    13.89400000    22.35452900 0 0 0
   231     77 2   0.5564     1.00000000    13.68400000    21.00252900 0 0 0
   232     78 1  -1.1128    11.61400000     5.85400000    23.61052900 0 0 0
   233     78 2   0.5564    12.28500000     6.08000000    24.31752900 0 0 0
   234     78 2   0.5564    11.26700000     4.93000000    23.76452900 0 0 0
   235     79 1  -1.1128     3.95800000     1.55500000    26.76652900 0 0 0
   236     79 2   0.5564     4.66000000     0.99800000    26.32352900 0 0 0
   237     79 2   0.5564     3.15100000     0.99400000    26.94852900 0 0 0
   238     80 1  -1.1128    11.44500000     9.01600000    25.17152900 0 0 0
   239     80 2   0.5564    12.13100000     9.74200000    25.20852900 0 0 0
   240     80 2   0.5564    11.87200000     8.16800000    24.85952900 0 0 0
   241     81 1  -1.1128     3.82500000     4.22600000    23.96552900 0 0 0
   242     81 2   0.5564     3.07000000     4.88300000    23.96452900 0 0 0
   243     81 2   0.5564     4.69500000     4.71700000    23.96352900 0 0 0
   244     82 1  -1.1128     6.31600000    11.98700000    25.87452900 0 0 0
   245     82 2   0.5564     7.14100000    12.28900000    26.35252900 0 0 0
   246     82 2   0.5564     6.55800000    11.29600000    25.19452900 0 0 0
   247     83 1  -1.1128    13.44100000     2.75100000    21.42052900 0 0 0
   248     83 2   0.5564    14.38200000     2.53200000    21.16152900 0 0 0
   249     83 2   0.5564    12.80900000     2.17000000    20.90952900 0 0 0
   250     84 1  -1.1128     7.39700000     3.26700000    16.94852900 0 0 0
   251     84 2   0.5564     8.13900000     2.74800000    16.52252900 0 0 0
   252     84 2   0.5564     7.62800000     4.23900000    16.95052900 0 0 0
   253     85 1  -1.1128    10.49000000     5.35000000    26.69152900 0 0 0
   254     85 2   0.5564    10.64600000     6.25500000    26.29552900 0 0 0
   255     85 2   0.5564     9.51900000     5.24300000    26.90552900 0 0 0
   256     86 1  -1.1128     8.07500000     6.11000000    19.25052900 0 0 0
   257     86 2   0.5564     7.24400000     6.55100000    19.59052900 0 0 0
   258     86 2   0.5564     8.28100000     6.44800000    18.33352900 0 0 0
   259     87 1  -1.1128    12.71500000     6.63800000    28.96352900 0 0 0
   260     87 2   0.5564    12.12600000     7.16000000    28.34652900 0 0 0
   261     87 2   0.5564    12.57200000     6.94800000    29.90352900 0 0 0
   262     88 1  -1.1128     1.00100000     2.15800000    21.53652900 0 0 0
   263     88 2   0.5564     1.92900000     1.84400000    21.73552900 0 0 0
   264     88 2   0.5564     1.02300000     3.12200000    21.27452900 0 0 0
   265     89 1  -1.1128     8.87000000     4.55400000    24.63952900 0 0 0
   266     89 2   0.5564     9.01400000     4.17900000    23.72452900 0 0 0
   267     89 2   0.5564     9.35300000     5.42500000    24.72252900 0 0 0
   268     90 1  -1.1128     4.70800000     2.27500000    29.45452900 0 0 0
   269     90 2   0.5564     4.61600000     3.04000000    28.81752900 0 0 0
   270     90 2   0.5564     5.40900000     1.64600000    29.12152900 0 0 0
   271     91 1  -1.1128     6.74100000     3.23900000    19.04552900 0 0 0
   272     91 2   0.5564     5.99700000     2.96300000    19.65452900 0 0 0
   273     91 2   0.5564     6.76100000     4.23600000    18.97252900 0 0 0
   274     92 1  -1.1128    11.36700000    13.80300000    29.16952900 0 0 0
   275     92 2   0.5564    12.35500000    13.67800000    29.07852900 0 0 0
   276     92 2   0.5564    11.17300000    14.33900000    29.99052900 0 0 0
   277     93 1  -1.1128    10.44700000     3.04900000    24.94152900 0 0 0
   278     93 2   0.5564    10.71500000     2.81500000    24.00652900 0 0 0
   279     93 2   0.5564    11.25200000     3.34500000    25.45552900 0 0 0
   280     94 1  -1.1128     7.21900000    10.80100000    27.98052900 0 0 0
   281     94 2   0.5564     7.70700000    10.03900000    27.55452900 0 0 0
   282     94 2   0.5564     6.25800000    10.77700000    27.70652900 0 0 0
   283     95 1  -1.1128     4.50900000     2.05900000    18.30952900 0 0 0
   284     95 2   0.5564     4.26700000     1.81000000    17.37152900 0 0 0
   285     95 2   0.5564     4.09500000     2.93900000    18.53852900 0 0 0
   286     96 1  -1.1128    11.02600000     7.09400000    18.03052900 0 0 0
   287     96 2   0.5564    11.48300000     7.95400000    17.80152900 0 0 0
   288     96 2   0.5564    10.32500000     7.26200000    18.72252900 0 0 0
   289     97 1  -1.1128     4.36200000     2.43800000    21.58952900 0 0 0
   290     97 2   0.5564     4.51200000     2.69500000    22.54452900 0 0 0
   291     97 2   0.5564     4.84800000     1.58800000    21.39152900 0 0 0
   292     98 1  -1.1128     8.25800000    13.18200000    18.87052900 0 0 0
   293     98 2   0.5564     8.45000000    14.05300000    18.41852900 0 0 0
   294     98 2   0.5564     7.40500000    12.80200000    18.51352900 0 0 0
   295     99 1  -1.1128     9.42400000    14.03700000    20.88152900 0 0 0
   296     99 2   0.5564     8.60400000    14.52200000    20.57952900 0 0 0
   297     99 2   0.5564     9.22900000    13.05900000    20.94352900 0 0 0
   298    100 1  -1.1128    14.55300000     4.20400000    28.66752900 0 0 0
   299    100 2   0.5564    14.34000000     5.17500000    28.77752900 0 0 0
   300    100 2   0.5564    13.70700000     3.69100000    28.52652900 0 0 0
   301    101 1  -1.1128     6.74200000     5.58500000    26.98652900 0 0 0
   302    101 2   0.5564     7.51700000     5.86700000    27.55252900 0 0 0
   303    101 2   0.5564     6.47000000     6.34100000    26.39252900 0 0 0
   304    102 1  -1.1128     9.82200000    11.44000000    18.93452900 0 0 0
   305    102 2   0.5564    10.45100000    12.05000000    19.41652900 0 0 0
   306    102 2   0.5564     9.98100000    10.49700000    19.22552900 0 0 0
   307    103 1  -1.1128     6.74400000     5.50800000    24.37552900 0 0 0
   308    103 2   0.5564     6.88100000     4.75900000    23.72652900 0 0 0
   309    103 2   0.5564     7.23400000     6.31900000    24.05852900 0 0 0
   310    104 1  -1.1128     2.63000000    11.08100000    19.40952900 0 0 0
   311    104 2   0.5564     1.67000000    11.35600000    19.45452900 0 0 0
   312    104 2   0.5564     2.73900000    10.18000000    19.82852900 0 0 0
   313    105 1  -1.1128     2.97500000     7.61200000    17.55652900 0 0 0
   314    105 2   0.5564     3.82000000     8.14700000    17.53952900 0 0 0
   315    105 2   0.5564     3.19700000     6.63800000    17.58552900 0 0 0
   316    106 1  -1.1128     7.21700000     5.81400000    29.72552900 0 0 0
   317    106 2   0.5564     8.07000000     6.32800000    29.63152900 0 0 0
   318    106 2   0.5564     7.41900000     4.89000000    30.04852900 0 0 0
   319    107 1  -1.1128    10.89900000     5.27000000    19.45752900 0 0 0
   320    107 2   0.5564    11.23500000     4.32900000    19.50352900 0 0 0
   321    107 2   0.5564    10.01700000     5.33300000    19.92452900 0 0 0
   322    108 1  -1.1128     4.45100000    14.51200000    21.74652900 0 0 0
   323    108 2   0.5564     5.31600000    14.33000000    21.27852900 0 0 0
   324    108 2   0.5564     3.69000000    14.30500000    21.13352900 0 0 0
   325    109 1  -1.1128     9.78500000     5.00400000    30.00552900 0 0 0
   326    109 2   0.5564     9.96800000     5.28100000    29.06152900 0 0 0
   327    109 2   0.5564     9.45700000     4.06100000    30.01852900 0 0 0
   328    110 1  -1.1128     3.66300000     5.31500000    27.47752900 0 0 0
   329    110 2   0.5564     3.25900000     4.59700000    28.04452900 0 0 0
   330    110 2   0.5564     3.46000000     6.20900000    27.87652900 0 0 0
   331    111 1  -1.1128    11.87600000     4.35900000    29.59852900 0 0 0
   332    111 2   0.5564    11.58400000     3.51400000    30.04652900 0 0 0
   333    111 2   0.5564    12.64000000     4.75900000    30.10352900 0 0 0
   334    112 1  -1.1128    12.49300000    12.19700000    27.05952900 0 0 0
   335    112 2   0.5564    11.51600000    12.40100000    27.12852900 0 0 0
   336    112 2   0.5564    13.01300000    13.05100000    27.05052900 0 0 0
   337    113 1  -1.1128     1.98000000     4.21200000    18.75052900 0 0 0
   338    113 2   0.5564     2.28600000     3.68300000    19.54252900 0 0 0
   339    113 2   0.5564     1.00100000     4.39500000    18.83052900 0 0 0
   340    114 1  -1.1128     9.16700000    12.86800000    29.13452900 0 0 0
   341    114 2   0.5564     9.74400000    12.44800000    28.43352900 0 0 0
   342    114 2   0.5564     9.61200000    12.78900000    30.02552900 0 0 0
   343    115 1  -1.1128     4.11100000     8.48400000    27.40052900 0 0 0
   344    115 2   0.5564     3.68800000     9.37700000    27.55352900 0 0 0
   345    115 2   0.5564     3.65500000     8.02500000    26.63852900 0 0 0
   346    116 1  -1.1128    10.02400000    10.45600000    26.03152900 0 0 0
   347    116 2   0.5564    10.71300000    10.39300000    26.75452900 0 0 0
   348    116 2   0.5564     9.36000000     9.71700000    26.13852900 0 0 0
   349    117 1  -1.1128     1.26100000     9.62000000    17.69752900 0 0 0
   350    117 2   0.5564     2.25800000     9.68300000    17.74152900 0 0 0
   351    117 2   0.5564     1.00000000     8.87400000    17.08552900 0 0 0
   352    118 1  -1.1128    13.84800000    10.01600000    18.08252900 0 0 0
   353    118 2   0.5564    13.99900000    10.07500000    19.06952900 0 0 0
   354    118 2   0.5564    14.52200000     9.39900000    17.67752900 0 0 0
   355    119 1  -1.1128     3.08100000     5.10300000    21.77852900 0 0 0
   356    119 2   0.5564     2.95600000     4.12900000    21.58852900 0 0 0
   357    119 2   0.5564     2.20400000     5.50800000    22.03352900 0 0 0
   358    120 1  -1.1128     1.87400000     4.84600000    26.07852900 0 0 0
   359    120 2   0.5564     2.23600000     5.75400000    25.86452900 0 0 0
   360    120 2   0.5564     0.99700000     4.71900000    25.61552900 0 0 0
   361    121 1  -1.1128    10.88500000     4.22100000    21.71952900 0 0 0
   362    121 2   0.5564    11.46600000     3.48000000    22.05652900 0 0 0
   363    121 2   0.5564    11.44000000     5.04000000    21.57452900 0 0 0
   364    122 1  -1.1128     6.61200000    13.96600000    16.82452900 0 0 0
   365    122 2   0.5564     6.05400000    14.52200000    17.44052900 0 0 0
   366    122 2   0.5564     6.08500000    13.17300000    16.52152900 0 0 0
   367    123 1  -1.1128    14.46300000     3.34300000    26.12952900 0 0 0
   368    123 2   0.5564    14.61300000     4.26900000    26.47452900 0 0 0
   369    123 2   0.5564    13.57300000     3.01100000    26.44052900 0 0 0
   370    124 1  -1.1128     1.00000000     7.09000000    18.37152900 0 0 0
   371    124 2   0.5564     1.50900000     6.52600000    19.02252900 0 0 0
   372    124 2   0.5564     1.00000000     6.64600000    17.47552900 0 0 0
   373    125 1  -1.1128     2.05500000    10.51000000    26.57352900 0 0 0
   374    125 2   0.5564     2.55600000    11.37500000    26.60952900 0 0 0
   375    125 2   0.5564     1.07400000    10.69400000    26.53052900 0 0 0

Bonds

1 1 1 2
2 1 1 3
3 1 4 5
4 1 4 6
5 1 7 8
6 1 7 9
7 1 10 11
8 1 10 12
9 1 13 14
10 1 13 15
11 1 16 17
12 1 16 18
13 1 19 20
14 1 19 21
15 1 22 23
16 1 22 24
17 1 25 26
18 1 25 27
19 1 28 29
20 1 28 30
21 1 31 32
22 1 31 33
23 1 34 35
24 1 34 36
25 1 37 38
26 1 37 39
27 1 40 41
28 1 40 42
29 1 43 44
30 1 43 45
31 1 46 47
32 1 46 48
33 1 49 50
34 1 49 51
35 1 52 53
36 1 52 54
37 1 55 56
38 1 55 57
39 1 58 59
40 1 58 60
41 1 61 62
42 1 61 63
43 1 64 65
44 1 64 66
45 1 67 68
46 1 67 69
47 1 70 71
48 1 70 72
49 1 73 74
50 1 73 75
51 1 76 77
52 1 76 78
53 1 79 80
54 1 79 81
55 1 82 83
56 1 82 84
57 1 85 86
58 1 85 87
59 1 88 89
60 1 88 90
61 1 91 92
62 1 91 93
63 1 94 95
64 1 94 96
65 1 97 98
66 1 97 99
67 1 100 101
68 1 100 102
69 1 103 104
70 1 103 105
71 1 106 107
72 1 106 108
73 1 109 110
74 1 109 111
75 1 112 113
76 1 112 114
77 1 115 116
78 1 115 117
79 1 118 119
80 1 118 120
81 1 121 122
82 1 121 123
83 1 124 125
84 1 124 126
85 1 127 128
86 1 127 129
87 1 130 131
88 1 130 132
89 1 133 134
90 1 133 135
91 1 136 137
92 1 136 138
93 1 139 140
94 1 139 141
95 1 142 143
96 1 142 144
97 1 145 146
98 1 145 147
99 1 148 149
100 1 148 150
101 1 151 152
102 1 151 153
103 1 154 155