ITEM: TIMESTEP
0
ITEM: NUMBER OF ATOMS
648
ITEM: BOX BOUNDS pp pp pp
0.0000000000000000e+00 1.8625834999999999e+01
0.0000000000000000e+00 1.8625834999999999e+01
0.0000000000000000e+00 5.5877504999999999e+01
ITEM: ATOMS id mol type x y z xu yu zu vx vy vz
1 1 1 10.3054 12.3311 29.0665 10.3054 12.3311 29.0665 0 0 0
2 1 2 10.0217 12.4362 28.1409 10.0217 12.4362 28.1409 0 0 0
3 1 2 10.5764 13.1992 29.406 10.5764 13.1992 29.406 0 0 0
4 2 1 14.4697 16.0642 21.3171 14.4697 16.0642 21.3171 0 0 0
5 2 2 14.2873 15.1608 21.0011 14.2873 15.1608 21.0011 0 0 0
6 2 2 15.2445 15.9797 21.8745 15.2445 15.9797 21.8745 0 0 0
7 3 1 8.57497 4.22967 21.6053 8.57497 4.22967 21.6053 0 0 0
8 3 2 9.44156 4.65823 21.5507 9.44156 4.65823 21.5507 0 0 0
9 3 2 8.7421 3.28848 21.8023 8.7421 3.28848 21.8023 0 0 0
10 4 1 8.60065 3.65899 26.2319 8.60065 3.65899 26.2319 0 0 0
11 4 2 9.06618 2.89773 25.8416 9.06618 2.89773 25.8416 0 0 0
12 4 2 9.2977 4.24005 26.5726 9.2977 4.24005 26.5726 0 0 0
13 5 1 5.57084 4.77861 21.8087 5.57084 4.77861 21.8087 0 0 0
14 5 2 5.7461 5.5654 21.2599 5.7461 5.5654 21.2599 0 0 0
15 5 2 6.41668 4.32421 21.8514 6.41668 4.32421 21.8514 0 0 0
16 6 1 4.90307 8.24967 22.6513 4.90307 8.24967 22.6513 0 0 0
17 6 2 4.33422 7.46913 22.746 4.33422 7.46913 22.746 0 0 0
18 6 2 4.44316 8.8545 22.031 4.44316 8.8545 22.031 0 0 0
19 7 1 3.9793 17.2703 26.9928 3.9793 17.2703 26.9928 0 0 0
20 7 2 4.08192 18.1906 27.2938 4.08192 18.1906 27.2938 0 0 0
21 7 2 3.11001 16.9809 27.2834 3.11001 16.9809 27.2834 0 0 0
22 8 1 6.80695 10.1598 25.3466 6.80695 10.1598 25.3466 0 0 0
23 8 2 6.83169 9.19663 25.2152 6.83169 9.19663 25.2152 0 0 0
24 8 2 6.75708 10.2919 26.302 6.75708 10.2919 26.302 0 0 0
25 9 1 7.90135 5.457 18.9292 7.90135 5.457 18.9292 0 0 0
26 9 2 8.10703 4.84748 19.6469 8.10703 4.84748 19.6469 0 0 0
27 9 2 8.48116 6.21682 19.0941 8.48116 6.21682 19.0941 0 0 0
28 10 1 0.215029 10.064 28.4724 0.215029 10.064 28.4724 0 0 0
29 10 2 0.453067 9.92463 27.5418 0.453067 9.92463 27.5418 0 0 0
30 10 2 18.5401 9.19517 28.7824 -0.085732 9.19517 28.7824 0 0 0
31 11 1 17.2359 2.4267 31.652 17.2359 2.4267 31.652 0 0 0
32 11 2 17.1557 1.48163 31.4561 17.1557 1.48163 31.4561 0 0 0
33 11 2 18.0473 2.75577 31.2306 18.0473 2.75577 31.2306 0 0 0
34 12 1 9.15907 10.1133 34.7528 9.15907 10.1133 34.7528 0 0 0
35 12 2 8.80487 9.22268 34.5894 8.80487 9.22268 34.5894 0 0 0
36 12 2 8.44631 10.5198 35.2742 8.44631 10.5198 35.2742 0 0 0
37 13 1 3.83139 0.149168 31.3362 3.83139 0.149168 31.3362 0 0 0
38 13 2 3.16309 0.483695 30.7178 3.16309 0.483695 30.7178 0 0 0
39 13 2 4.54257 0.817371 31.3137 4.54257 0.817371 31.3137 0 0 0
40 14 1 2.21035 12.7287 30.309 2.21035 12.7287 30.309 0 0 0
41 14 2 2.59893 13.1895 31.0698 2.59893 13.1895 31.0698 0 0 0
42 14 2 2.38145 11.7783 30.426 2.38145 11.7783 30.426 0 0 0
43 15 1 4.36394 4.28511 35.6264 4.36394 4.28511 35.6264 0 0 0
44 15 2 4.97132 3.94111 36.283 4.97132 3.94111 36.283 0 0 0
45 15 2 3.76227 3.54286 35.4108 3.76227 3.54286 35.4108 0 0 0
46 16 1 16.0787 9.18725 27.0189 16.0787 9.18725 27.0189 0 0 0
47 16 2 15.1743 9.24902 27.3754 15.1743 9.24902 27.3754 0 0 0
48 16 2 16.4827 10.0425 27.2353 16.4827 10.0425 27.2353 0 0 0
49 17 1 3.60403 9.32534 27.4714 3.60403 9.32534 27.4714 0 0 0
50 17 2 4.36401 9.90963 27.3745 4.36401 9.90963 27.3745 0 0 0
51 17 2 3.28287 9.48838 28.3816 3.28287 9.48838 28.3816 0 0 0
52 18 1 12.1749 1.83411 23.5324 12.1749 1.83411 23.5324 0 0 0
53 18 2 11.9116 1.43773 22.6837 11.9116 1.43773 22.6837 0 0 0
54 18 2 12.1016 2.80136 23.4247 12.1016 2.80136 23.4247 0 0 0
55 19 1 11.801 10.6305 23.7948 11.801 10.6305 23.7948 0 0 0
56 19 2 10.8232 10.6974 23.7749 10.8232 10.6974 23.7749 0 0 0
57 19 2 12.0243 10.038 23.035 12.0243 10.038 23.035 0 0 0
58 20 1 10.4518 1.31309 33.7717 10.4518 1.31309 33.7717 0 0 0
59 20 2 10.2096 1.86364 33.0122 10.2096 1.86364 33.0122 0 0 0
60 20 2 10.8823 1.93478 34.3774 10.8823 1.93478 34.3774 0 0 0
61 21 1 6.5593 14.6846 19.7645 6.5593 14.6846 19.7645 0 0 0
62 21 2 6.62526 13.7421 19.5873 6.62526 13.7421 19.5873 0 0 0
63 21 2 6.6693 14.7746 20.7326 6.6693 14.7746 20.7326 0 0 0
64 22 1 7.79973 7.76919 34.1468 7.79973 7.76919 34.1468 0 0 0
65 22 2 7.56514 7.60943 35.067 7.56514 7.60943 35.067 0 0 0
66 22 2 6.94779 7.91404 33.6783 6.94779 7.91404 33.6783 0 0 0
67 23 1 18.4506 12.7859 33.3525 18.4506 12.7859 33.3525 0 0 0
68 23 2 17.8948 13.5719 33.3213 17.8948 13.5719 33.3213 0 0 0
69 23 2 17.8334 12.0835 33.6508 17.8334 12.0835 33.6508 0 0 0
70 24 1 12.919 11.3711 29.4895 12.919 11.3711 29.4895 0 0 0
71 24 2 13.2932 11.8251 28.7202 13.2932 11.8251 28.7202 0 0 0
72 24 2 11.9621 11.4984 29.3857 11.9621 11.4984 29.3857 0 0 0
73 25 1 5.49607 8.85088 30.0606 5.49607 8.85088 30.0606 0 0 0
74 25 2 5.52081 9.16734 29.1531 5.52081 9.16734 29.1531 0 0 0
75 25 2 5.27039 9.64022 30.5902 5.27039 9.64022 30.5902 0 0 0
76 26 1 11.4358 17.3838 24.8542 11.4358 17.3838 24.8542 0 0 0
77 26 2 10.9284 17.1999 24.0535 10.9284 17.1999 24.0535 0 0 0
78 26 2 12.3512 17.2128 24.6224 12.3512 17.2128 24.6224 0 0 0
79 27 1 18.1375 14.4455 37.4527 18.1375 14.4455 37.4527 0 0 0
80 27 2 17.3269 13.9626 37.2298 17.3269 13.9626 37.2298 0 0 0
81 27 2 17.8505 15.2762 37.8317 17.8505 15.2762 37.8317 0 0 0
82 28 1 16.1685 11.1465 30.6128 16.1685 11.1465 30.6128 0 0 0
83 28 2 15.882 11.969 31.029 15.882 11.969 31.029 0 0 0
84 28 2 16.892 10.7785 31.1453 16.892 10.7785 31.1453 0 0 0
85 29 1 6.61691 15.1498 22.4404 6.61691 15.1498 22.4404 0 0 0
86 29 2 6.02341 14.4109 22.6476 6.02341 14.4109 22.6476 0 0 0
87 29 2 7.43468 14.9267 22.9046 7.43468 14.9267 22.9046 0 0 0
88 30 1 8.36249 4.05082 29.9002 8.36249 4.05082 29.9002 0 0 0
89 30 2 7.76222 3.47584 29.3959 7.76222 3.47584 29.3959 0 0 0
90 30 2 8.48001 4.86137 29.372 8.48001 4.86137 29.372 0 0 0
91 31 1 5.75118 2.08122 31.2026 5.75118 2.08122 31.2026 0 0 0
92 31 2 6.66155 1.7438 31.1456 6.66155 1.7438 31.1456 0 0 0
93 31 2 5.70733 2.69244 31.9546 5.70733 2.69244 31.9546 0 0 0
94 32 1 3.17064 3.94885 20.5621 3.17064 3.94885 20.5621 0 0 0
95 32 2 4.02571 3.89784 21.0109 4.02571 3.89784 21.0109 0 0 0
96 32 2 2.54421 3.49557 21.1395 2.54421 3.49557 21.1395 0 0 0
97 33 1 9.1352 4.8435 34.7024 9.1352 4.8435 34.7024 0 0 0
98 33 2 9.16701 5.66688 35.207 9.16701 5.66688 35.207 0 0 0
99 33 2 8.53005 4.99488 33.9655 8.53005 4.99488 33.9655 0 0 0
100 34 1 12.8963 6.2239 30.7558 12.8963 6.2239 30.7558 0 0 0
101 34 2 12.2619 6.96994 30.6744 12.2619 6.96994 30.6744 0 0 0
102 34 2 13.757 6.63284 30.5748 13.757 6.63284 30.5748 0 0 0
103 35 1 1.20762 14.294 35.3052 1.20762 14.294 35.3052 0 0 0
104 35 2 0.785916 13.5964 34.7835 0.785916 13.5964 34.7835 0 0 0
105 35 2 0.667989 14.3768 36.1127 0.667989 14.3768 36.1127 0 0 0
106 36 1 9.04209 10.6022 23.5565 9.04209 10.6022 23.5565 0 0 0
107 36 2 8.89452 11.3901 23.025 8.89452 11.3901 23.025 0 0 0
108 36 2 8.41182 10.6459 24.2944 8.41182 10.6459 24.2944 0 0 0
109 37 1 2.6875 2.30821 34.6897 2.6875 2.30821 34.6897 0 0 0
110 37 2 2.93411 1.37456 34.602 2.93411 1.37456 34.602 0 0 0
111 37 2 2.61872 2.65268 33.7838 2.61872 2.65268 33.7838 0 0 0
112 38 1 5.00201 17.4073 24.4042 5.00201 17.4073 24.4042 0 0 0
113 38 2 4.45082 17.4915 23.6031 4.45082 17.4915 23.6031 0 0 0
114 38 2 4.39082 17.2446 25.1387 4.39082 17.2446 25.1387 0 0 0
115 39 1 5.76477 9.47402 18.9301 5.76477 9.47402 18.9301 0 0 0
116 39 2 6.04456 8.60015 19.2486 6.04456 8.60015 19.2486 0 0 0
117 39 2 6.46759 10.0835 19.1705 6.46759 10.0835 19.1705 0 0 0
118 40 1 4.17686 7.26253 35.3877 4.17686 7.26253 35.3877 0 0 0
119 40 2 4.04945 6.31193 35.5077 4.04945 6.31193 35.5077 0 0 0
120 40 2 3.28415 7.63565 35.3657 3.28415 7.63565 35.3657 0 0 0
121 41 1 16.8664 6.14272 23.2266 16.8664 6.14272 23.2266 0 0 0
122 41 2 17.8292 6.06567 23.171 17.8292 6.06567 23.171 0 0 0
123 41 2 16.5757 6.6368 22.45 16.5757 6.6368 22.45 0 0 0
124 42 1 15.84 5.89975 32.1238 15.84 5.89975 32.1238 0 0 0
125 42 2 15.7334 5.0645 31.6506 15.7334 5.0645 31.6506 0 0 0
126 42 2 16.277 5.70098 32.9721 16.277 5.70098 32.9721 0 0 0
127 43 1 0.59504 4.36898 34.6871 0.59504 4.36898 34.6871 0 0 0
128 43 2 0.901008 3.51975 35.0275 0.901008 3.51975 35.0275 0 0 0
129 43 2 1.12437 4.46285 33.8771 1.12437 4.46285 33.8771 0 0 0
130 44 1 13.6028 5.91116 20.8808 13.6028 5.91116 20.8808 0 0 0
131 44 2 14.1744 6.62446 21.2068 14.1744 6.62446 21.2068 0 0 0
132 44 2 13.9284 5.70186 20.0039 13.9284 5.70186 20.0039 0 0 0
133 45 1 4.02329 1.93152 22.8978 4.02329 1.93152 22.8978 0 0 0
134 45 2 4.6493 2.46726 23.4191 4.6493 2.46726 23.4191 0 0 0
135 45 2 4.53447 1.28749 22.394 4.53447 1.28749 22.394 0 0 0
136 46 1 1.40164 8.04146 21.3064 1.40164 8.04146 21.3064 0 0 0
137 46 2 1.7858 8.73146 21.8756 1.7858 8.73146 21.8756 0 0 0
138 46 2 2.13575 7.668 20.7869 2.13575 7.668 20.7869 0 0 0
139 47 1 3.89884 15.381 20.6354 3.89884 15.381 20.6354 0 0 0
140 47 2 4.65293 15.303 20.0341 4.65293 15.303 20.0341 0 0 0
141 47 2 4.11275 14.7449 21.3305 4.11275 14.7449 21.3305 0 0 0
142 48 1 5.70649 11.9389 33.9132 5.70649 11.9389 33.9132 0 0 0
143 48 2 4.74781 11.913 34.0255 4.74781 11.913 34.0255 0 0 0
144 48 2 6.0653 11.4989 34.7014 6.0653 11.4989 34.7014 0 0 0
145 49 1 1.55568 17.084 24.5971 1.55568 17.084 24.5971 0 0 0
146 49 2 1.60092 16.57 25.4144 1.60092 16.57 25.4144 0 0 0
147 49 2 1.94664 17.9551 24.8028 1.94664 17.9551 24.8028 0 0 0
148 50 1 4.35435 6.88272 26.289 4.35435 6.88272 26.289 0 0 0
149 50 2 5.13246 7.18075 25.7727 5.13246 7.18075 25.7727 0 0 0
150 50 2 3.98524 7.68161 26.7002 3.98524 7.68161 26.7002 0 0 0
151 51 1 14.0003 13.0448 31.259 14.0003 13.0448 31.259 0 0 0
152 51 2 13.822 12.8968 32.2056 13.822 12.8968 32.2056 0 0 0
153 51 2 13.5618 12.3402 30.7289 13.5618 12.3402 30.7289 0 0 0
154 52 1 6.33424 13.7726 30.8268 6.33424 13.7726 30.8268 0 0 0
155 52 2 5.56613 13.186 30.7963 5.56613 13.186 30.7963 0 0 0
156 52 2 6.55081 13.8722 31.771 6.55081 13.8722 31.771 0 0 0
157 53 1 18.4405 7.66869 29.8769 18.4405 7.66869 29.8769 0 0 0
158 53 2 18.0057 8.19438 30.5711 18.0057 8.19438 30.5711 0 0 0
159 53 2 17.7627 7.17122 29.4034 17.7627 7.17122 29.4034 0 0 0
160 54 1 18.0932 9.53171 31.8752 -0.532667 9.53171 31.8752 0 0 0
161 54 2 17.9208 9.14438 32.7579 -0.705077 9.14438 32.7579 0 0 0
162 54 2 0.388395 9.81342 31.898 0.388395 9.81342 31.898 0 0 0
163 55 1 7.54678 5.42529 32.1547 7.54678 5.42529 32.1547 0 0 0
164 55 2 7.76699 4.86093 31.3934 7.76699 4.86093 31.3934 0 0 0
165 55 2 7.59749 6.32915 31.8047 7.59749 6.32915 31.8047 0 0 0
166 56 1 14.8772 4.49215 24.3467 14.8772 4.49215 24.3467 0 0 0
167 56 2 15.5999 4.9232 23.8676 15.5999 4.9232 23.8676 0 0 0
168 56 2 14.9595 3.53753 24.1858 14.9595 3.53753 24.1858 0 0 0
169 57 1 11.2542 0.909594 21.1122 11.2542 0.909594 21.1122 0 0 0
170 57 2 11.5201 0.0378361 20.7788 11.5201 0.0378361 20.7788 0 0 0
171 57 2 11.6943 1.59921 20.5877 11.6943 1.59921 20.5877 0 0 0
172 58 1 15.3127 15.3348 30.5104 15.3127 15.3348 30.5104 0 0 0
173 58 2 14.6902 16.0136 30.8212 14.6902 16.0136 30.8212 0 0 0
174 58 2 14.9155 14.4965 30.8044 14.9155 14.4965 30.8044 0 0 0
175 59 1 2.45111 10.0274 29.9074 2.45111 10.0274 29.9074 0 0 0
176 59 2 1.59611 10.0468 29.4218 1.59611 10.0468 29.4218 0 0 0
177 59 2 2.40282 9.26316 30.5125 2.40282 9.26316 30.5125 0 0 0
178 60 1 2.10419 7.83606 31.5988 2.10419 7.83606 31.5988 0 0 0
179 60 2 1.31832 7.43604 31.2123 1.31832 7.43604 31.2123 0 0 0
180 60 2 2.85303 7.24628 31.3613 2.85303 7.24628 31.3613 0 0 0
181 61 1 14.3285 11.2401 25.2571 14.3285 11.2401 25.2571 0 0 0
182 61 2 14.7806 11.7982 24.6046 14.7806 11.7982 24.6046 0 0 0
183 61 2 13.4921 10.9737 24.8525 13.4921 10.9737 24.8525 0 0 0
184 62 1 9.60195 7.47792 23.3705 9.60195 7.47792 23.3705 0 0 0
185 62 2 10.1444 7.83135 24.095 10.1444 7.83135 24.095 0 0 0
186 62 2 9.0963 6.7492 23.772 9.0963 6.7492 23.772 0 0 0
187 63 1 18.2137 14.1993 30.8822 18.2137 14.1993 30.8822 0 0 0
188 63 2 18.2679 13.9901 29.9303 18.2679 13.9901 29.9303 0 0 0
189 63 2 18.6049 13.4363 31.3257 18.6049 13.4363 31.3257 0 0 0
190 64 1 15.1015 1.87875 21.2788 15.1015 1.87875 21.2788 0 0 0
191 64 2 15.1246 1.68004 22.224 15.1246 1.68004 22.224 0 0 0
192 64 2 15.1804 1.03269 20.8368 15.1804 1.03269 20.8368 0 0 0
193 65 1 15.2762 13.4144 23.8119 15.2762 13.4144 23.8119 0 0 0
194 65 2 15.6459 14.1403 24.3416 15.6459 14.1403 24.3416 0 0 0
195 65 2 15.7532 13.4224 22.9591 15.7532 13.4224 22.9591 0 0 0
196 66 1 6.01613 10.927 28.0285 6.01613 10.927 28.0285 0 0 0
197 66 2 6.70751 11.0406 28.7151 6.70751 11.0406 28.7151 0 0 0
198 66 2 5.33071 11.6031 28.264 5.33071 11.6031 28.264 0 0 0
199 67 1 2.11072 1.1429 29.2439 2.11072 1.1429 29.2439 0 0 0
200 67 2 1.57811 0.464555 28.8042 1.57811 0.464555 28.8042 0 0 0
201 67 2 2.8324 1.34165 28.6204 2.8324 1.34165 28.6204 0 0 0
202 68 1 5.37637 8.12389 32.9987 5.37637 8.12389 32.9987 0 0 0
203 68 2 4.84768 7.85234 33.7631 4.84768 7.85234 33.7631 0 0 0
204 68 2 5.13184 7.50031 32.3013 5.13184 7.50031 32.3013 0 0 0
205 69 1 1.27293 14.57 20.7824 1.27293 14.57 20.7824 0 0 0
206 69 2 2.01848 15.0504 20.3926 2.01848 15.0504 20.3926 0 0 0
207 69 2 0.46414 14.8769 20.3708 0.46414 14.8769 20.3708 0 0 0
208 70 1 6.75019 2.56303 28.0637 6.75019 2.56303 28.0637 0 0 0
209 70 2 7.03026 1.64025 28.1798 7.03026 1.64025 28.1798 0 0 0
210 70 2 7.31808 2.92784 27.3622 7.31808 2.92784 27.3622 0 0 0
211 71 1 10.2888 3.14983 31.6222 10.2888 3.14983 31.6222 0 0 0
212 71 2 11.2371 3.29343 31.519 11.2371 3.29343 31.519 0 0 0
213 71 2 9.83585 3.55731 30.8663 9.83585 3.55731 30.8663 0 0 0
214 72 1 4.09882 16.1947 30.5629 4.09882 16.1947 30.5629 0 0 0
215 72 2 3.14986 16.1406 30.3797 3.14986 16.1406 30.3797 0 0 0
216 72 2 4.20383 17.1262 30.8434 4.20383 17.1262 30.8434 0 0 0
217 73 1 5.20448 4.18036 32.9446 5.20448 4.18036 32.9446 0 0 0
218 73 2 5.11417 4.26323 33.9049 5.11417 4.26323 33.9049 0 0 0
219 73 2 5.92061 4.78596 32.68 5.92061 4.78596 32.68 0 0 0
220 74 1 10.9359 14.4823 19.7599 10.9359 14.4823 19.7599 0 0 0
221 74 2 11.2489 15.3379 20.1163 11.2489 15.3379 20.1163 0 0 0
222 74 2 10.4376 14.7189 18.9747 10.4376 14.7189 18.9747 0 0 0
223 75 1 13.5774 17.5213 30.9604 13.5774 17.5213 30.9604 0 0 0
224 75 2 13.2289 17.4546 30.053 13.2289 17.4546 30.053 0 0 0
225 75 2 14.3708 18.0824 30.9464 14.3708 18.0824 30.9464 0 0 0
226 76 1 14.2808 7.75569 33.6803 14.2808 7.75569 33.6803 0 0 0
227 76 2 13.328 7.70576 33.8945 13.328 7.70576 33.8945 0 0 0
228 76 2 14.5298 6.95557 33.2025 14.5298 6.95557 33.2025 0 0 0
229 77 1 15.1389 1.88498 28.1662 15.1389 1.88498 28.1662 0 0 0
230 77 2 15.1803 2.3977 28.9947 15.1803 2.3977 28.9947 0 0 0
231 77 2 15.7554 1.14359 28.2488 15.7554 1.14359 28.2488 0 0 0
232 78 1 16.4978 13.4436 21.3616 16.4978 13.4436 21.3616 0 0 0
233 78 2 17.2191 12.8006 21.4162 17.2191 12.8006 21.4162 0 0 0
234 78 2 15.8292 13.0717 20.7741 15.8292 13.0717 20.7741 0 0 0
235 79 1 10.0693 16.7854 30.702 10.0693 16.7854 30.702 0 0 0
236 79 2 10.3569 17.1952 31.5281 10.3569 17.1952 31.5281 0 0 0
237 79 2 10.6407 16.0004 30.6133 10.6407 16.0004 30.6133 0 0 0
238 80 1 8.55612 17.8445 34.4883 8.55612 17.8445 34.4883 0 0 0
239 80 2 9.09311 18.6251 34.2948 9.09311 18.6251 34.2948 0 0 0
240 80 2 9.18766 17.1269 34.5574 9.18766 17.1269 34.5574 0 0 0
241 81 1 16.2565 18.4505 31.1342 16.2565 18.4505 31.1342 0 0 0
242 81 2 16.4538 18.1852 30.2196 16.4538 18.1852 30.2196 0 0 0
243 81 2 16.5814 17.7304 31.6968 16.5814 17.7304 31.6968 0 0 0
244 82 1 12.6729 4.93637 28.2925 12.6729 4.93637 28.2925 0 0 0
245 82 2 12.7244 5.33132 29.1793 12.7244 5.33132 29.1793 0 0 0
246 82 2 13.5726 4.96378 27.9238 13.5726 4.96378 27.9238 0 0 0
247 83 1 12.5329 0.95807 27.7383 12.5329 0.95807 27.7383 0 0 0
248 83 2 12.2825 1.53174 26.9922 12.2825 1.53174 26.9922 0 0 0
249 83 2 13.4161 1.30398 27.9559 13.4161 1.30398 27.9559 0 0 0
250 84 1 9.1262 10.3683 31.9994 9.1262 10.3683 31.9994 0 0 0
251 84 2 8.47478 10.8182 31.4292 8.47478 10.8182 31.4292 0 0 0
252 84 2 8.84279 10.4107 32.9285 8.84279 10.4107 32.9285 0 0 0
253 85 1 1.24386 3.30892 25.2598 1.24386 3.30892 25.2598 0 0 0
254 85 2 2.00505 3.74395 25.6723 2.00505 3.74395 25.6723 0 0 0
255 85 2 1.32564 3.43441 24.3059 1.32564 3.43441 24.3059 0 0 0
256 86 1 12.9963 3.89043 32.2634 12.9963 3.89043 32.2634 0 0 0
257 86 2 13.832 3.69665 32.7396 13.832 3.69665 32.7396 0 0 0
258 86 2 13.0374 4.80435 31.931 13.0374 4.80435 31.931 0 0 0
259 87 1 7.25236 16.5069 30.3191 7.25236 16.5069 30.3191 0 0 0
260 87 2 8.1834 16.4682 30.5879 8.1834 16.4682 30.5879 0 0 0
261 87 2 6.89209 15.6156 30.4399 6.89209 15.6156 30.4399 0 0 0
262 88 1 15.3509 7.58307 30.096 15.3509 7.58307 30.096 0 0 0
263 88 2 15.7519 7.16589 29.3221 15.7519 7.16589 29.3221 0 0 0
264 88 2 15.726 7.12189 30.8668 15.726 7.12189 30.8668 0 0 0
265 89 1 12.7102 17.009 28.3212 12.7102 17.009 28.3212 0 0 0
266 89 2 11.9262 16.5072 28.0243 11.9262 16.5072 28.0243 0 0 0
267 89 2 12.6095 17.9085 27.9475 12.6095 17.9085 27.9475 0 0 0
268 90 1 9.30016 7.69485 19.9658 9.30016 7.69485 19.9658 0 0 0
269 90 2 8.63083 8.04351 20.5831 8.63083 8.04351 20.5831 0 0 0
270 90 2 9.8815 7.1522 20.5177 9.8815 7.1522 20.5177 0 0 0
271 91 1 10.5158 5.71281 26.8108 10.5158 5.71281 26.8108 0 0 0
272 91 2 10.724 6.23265 26.0293 10.724 6.23265 26.0293 0 0 0
273 91 2 11.3613 5.57509 27.2765 11.3613 5.57509 27.2765 0 0 0
274 92 1 2.00235 8.81465 34.2215 2.00235 8.81465 34.2215 0 0 0
275 92 2 1.1165 8.62661 34.5629 1.1165 8.62661 34.5629 0 0 0
276 92 2 2.04549 8.35948 33.363 2.04549 8.35948 33.363 0 0 0
277 93 1 16.7043 5.80943 34.7312 16.7043 5.80943 34.7312 0 0 0
278 93 2 17.426 5.17587 34.8494 17.426 5.17587 34.8494 0 0 0
279 93 2 15.8979 5.4105 35.0951 15.8979 5.4105 35.0951 0 0 0
280 94 1 17.2749 16.1943 32.6907 17.2749 16.1943 32.6907 0 0 0
281 94 2 17.347 15.5976 31.9284 17.347 15.5976 31.9284 0 0 0
282 94 2 18.179 16.3723 32.9926 18.179 16.3723 32.9926 0 0 0
283 95 1 1.4508 6.51243 36.2943 1.4508 6.51243 36.2943 0 0 0
284 95 2 1.16824 5.7359 35.7856 1.16824 5.7359 35.7856 0 0 0
285 95 2 1.47457 6.21924 37.2045 1.47457 6.21924 37.2045 0 0 0
286 96 1 3.29005 14.366 32.4366 3.29005 14.366 32.4366 0 0 0
287 96 2 3.82102 14.9653 31.8793 3.82102 14.9653 31.8793 0 0 0
288 96 2 2.57669 14.9426 32.7489 2.57669 14.9426 32.7489 0 0 0
289 97 1 7.16305 15.7768 25.3953 7.16305 15.7768 25.3953 0 0 0
290 97 2 7.15712 15.6473 26.3539 7.15712 15.6473 26.3539 0 0 0
291 97 2 6.26815 15.9922 25.0965 6.26815 15.9922 25.0965 0 0 0
292 98 1 7.94885 7.97582 30.8129 7.94885 7.97582 30.8129 0 0 0
293 98 2 8.39089 8.71131 31.259 8.39089 8.71131 31.259 0 0 0
294 98 2 7.08021 8.32674 30.5332 7.08021 8.32674 30.5332 0 0 0
295 99 1 12.2888 3.12036 26.2139 12.2888 3.12036 26.2139 0 0 0
296 99 2 12.2382 3.62464 27.0339 12.2382 3.62464 27.0339 0 0 0
297 99 2 11.946 3.70385 25.5258 11.946 3.70385 25.5258 0 0 0
298 100 1 10.9426 5.99631 21.6914 10.9426 5.99631 21.6914 0 0 0
299 100 2 10.6023 6.67313 22.327 10.6023 6.67313 22.327 0 0 0
300 100 2 11.8092 6.28652 21.3658 11.8092 6.28652 21.3658 0 0 0
301 101 1 4.26385 6.45517 30.9397 4.26385 6.45517 30.9397 0 0 0
302 101 2 4.73346 6.94952 30.25 4.73346 6.94952 30.25 0 0 0
303 101 2 4.19389 5.55477 30.5801 4.19389 5.55477 30.5801 0 0 0
304 102 1 16.5439 10.0017 20.5514 16.5439 10.0017 20.5514 0 0 0
305 102 2 17.124 9.85768 19.7961 17.124 9.85768 19.7961 0 0 0
306 102 2 17.1263 10.4574 21.1779 17.1263 10.4574 21.1779 0 0 0
307 103 1 3.71819 5.82632 23.5919 3.71819 5.82632 23.5919 0 0 0
308 103 2 3.93344 5.99352 24.5163 3.93344 5.99352 24.5163 0 0 0
309 103 2 4.40976 5.24894 23.222 4.40976 5.24894 23.222 0 0 0
310 104 1 6.90992 13.0129 26.3076 6.90992 13.0129 26.3076 0 0 0
311 104 2 6.5382 12.3127 26.8599 6.5382 12.3127 26.8599 0 0 0
312 104 2 7.23824 13.6704 26.9424 7.23824 13.6704 26.9424 0 0 0
313 105 1 16.5929 11.814 27.9757 16.5929 11.814 27.9757 0 0 0
314 105 2 16.5554 11.5 28.8975 16.5554 11.5 28.8975 0 0 0
315 105 2 15.7241 12.2091 27.8314 15.7241 12.2091 27.8314 0 0 0
316 106 1 0.580107 6.68456 26.1374 0.580107 6.68456 26.1374 0 0 0
317 106 2 18.3629 6.50761 26.584 -0.262933 6.50761 26.584 0 0 0
318 106 2 0.556871 6.24758 25.2786 0.556871 6.24758 25.2786 0 0 0
319 107 1 6.36227 8.21452 36.7719 6.36227 8.21452 36.7719 0 0 0
320 107 2 6.38726 7.77348 37.6215 6.38726 7.77348 37.6215 0 0 0
321 107 2 5.52473 7.92956 36.3616 5.52473 7.92956 36.3616 0 0 0
322 108 1 3.47175 17.7199 22.153 3.47175 17.7199 22.153 0 0 0
323 108 2 3.65784 16.986 21.5468 3.65784 16.986 21.5468 0 0 0
324 108 2 2.56717 17.5918 22.448 2.56717 17.5918 22.448 0 0 0
325 109 1 5.46912 3.32272 24.7963 5.46912 3.32272 24.7963 0 0 0
326 109 2 4.85024 3.59084 25.4933 4.85024 3.59084 25.4933 0 0 0
327 109 2 5.91774 2.53981 25.153 5.91774 2.53981 25.153 0 0 0
328 110 1 11.418 14.4121 30.6204 11.418 14.4121 30.6204 0 0 0
329 110 2 10.8331 14.0495 31.3143 10.8331 14.0495 31.3143 0 0 0
330 110 2 12.3184 14.1331 30.8396 12.3184 14.1331 30.8396 0 0 0
331 111 1 1.6342 5.68813 28.7617 1.6342 5.68813 28.7617 0 0 0
332 111 2 1.5172 5.71046 27.8051 1.5172 5.71046 27.8051 0 0 0
333 111 2 1.20404 6.49398 29.0718 1.20404 6.49398 29.0718 0 0 0
334 112 1 12.7298 3.09187 20.2981 12.7298 3.09187 20.2981 0 0 0
335 112 2 12.5723 3.95825 20.6827 12.5723 3.95825 20.6827 0 0 0
336 112 2 13.5858 2.80956 20.6596 13.5858 2.80956 20.6596 0 0 0
337 113 1 12.3864 15.6429 36.7735 12.3864 15.6429 36.7735 0 0 0
338 113 2 11.7474 15.5454 37.4796 11.7474 15.5454 37.4796 0 0 0
339 113 2 11.9464 15.3354 35.9647 11.9464 15.3354 35.9647 0 0 0
340 114 1 15.4812 8.0997 24.5633 15.4812 8.0997 24.5633 0 0 0
341 114 2 15.7722 8.70585 25.266 15.7722 8.70585 25.266 0 0 0
342 114 2 16.2001 7.47224 24.3995 16.2001 7.47224 24.3995 0 0 0
343 115 1 9.87427 1.5418 25.0039 9.87427 1.5418 25.0039 0 0 0
344 115 2 9.69916 0.60311 25.158 9.69916 0.60311 25.158 0 0 0
345 115 2 10.8054 1.59474 24.7322 10.8054 1.59474 24.7322 0 0 0
346 116 1 13.9487 12.9048 27.3023 13.9487 12.9048 27.3023 0 0 0
347 116 2 14.3466 13.7901 27.2726 14.3466 13.7901 27.2726 0 0 0
348 116 2 14.1734 12.3916 26.493 14.1734 12.3916 26.493 0 0 0
349 117 1 3.71023 9.66242 20.7116 3.71023 9.66242 20.7116 0 0 0
350 117 2 3.28339 10.533 20.6857 3.28339 10.533 20.6857 0 0 0
351 117 2 4.39441 9.68188 20.013 4.39441 9.68188 20.013 0 0 0
352 118 1 9.50218 11.8174 26.5429 9.50218 11.8174 26.5429 0 0 0
353 118 2 8.63205 12.182 26.3089 8.63205 12.182 26.3089 0 0 0
354 118 2 10.1522 12.354 26.0633 10.1522 12.354 26.0633 0 0 0
355 119 1 1.88472 15.2951 26.8384 1.88472 15.2951 26.8384 0 0 0
356 119 2 2.68735 14.8628 26.4928 2.68735 14.8628 26.4928 0 0 0
357 119 2 1.32167 14.5721 27.1611 1.32167 14.5721 27.1611 0 0 0
358 120 1 17.7202 8.52347 34.4004 17.7202 8.52347 34.4004 0 0 0
359 120 2 17.3104 7.67444 34.6206 17.3104 7.67444 34.6206 0 0 0
360 120 2 17.1687 9.22971 34.7615 17.1687 9.22971 34.7615 0 0 0
361 121 1 0.946156 3.43772 22.3396 0.946156 3.43772 22.3396 0 0 0
362 121 2 0.801865 4.39446 22.4034 0.801865 4.39446 22.4034 0 0 0
363 121 2 0.0969909 3.0578 22.11 0.0969909 3.0578 22.11 0 0 0
364 122 1 12.1166 4.50671 23.8007 12.1166 4.50671 23.8007 0 0 0
365 122 2 13.0581 4.74053 23.8794 13.0581 4.74053 23.8794 0 0 0
366 122 2 11.7433 5.04852 23.0893 11.7433 5.04852 23.0893 0 0 0
367 123 1 4.97404 12.9437 22.1463 4.97404 12.9437 22.1463 0 0 0
368 123 2 5.67703 12.451 21.6769 5.67703 12.451 21.6769 0 0 0
369 123 2 4.73217 12.3825 22.9085 4.73217 12.3825 22.9085 0 0 0
370 124 1 1.30256 16.3141 30.7229 1.30256 16.3141 30.7229 0 0 0
371 124 2 0.757986 15.5088 30.8038 0.757986 15.5088 30.8038 0 0 0
372 124 2 1.35502 16.6619 31.621 1.35502 16.6619 31.621 0 0 0
373 125 1 15.1604 3.57177 30.3407 15.1604 3.57177 30.3407 0 0 0
374 125 2 15.8343 3.10707 30.8713 15.8343 3.10707 30.8713 0 0 0
375 125 2 14.3196 3.45188 30.8045 14.3196 3.45188 30.8045 0 0 0
376 126 1 2.40114 4.017 32.5682 2.40114 4.017 32.5682 0 0 0
377 126 2 3.33466 4.2516 32.4561 3.33466 4.2516 32.4561 0 0 0
378 126 2 2.02708 3.81809 31.6923 2.02708 3.81809 31.6923 0 0 0
379 127 1 8.13682 14.964 27.8158 8.13682 14.964 27.8158 0 0 0
380 127 2 8.99897 15.3931 27.6743 8.99897 15.3931 27.6743 0 0 0
381 127 2 7.68186 15.4147 28.5344 7.68186 15.4147 28.5344 0 0 0
382 128 1 4.17161 1.37984 27.4216 4.17161 1.37984 27.4216 0 0 0
383 128 2 3.85146 1.4604 26.5066 3.85146 1.4604 26.5066 0 0 0
384 128 2 4.98437 1.90104 27.5139 4.98437 1.90104 27.5139 0 0 0
385 129 1 15.3831 15.352 34.5518 15.3831 15.352 34.5518 0 0 0
386 129 2 14.8502 16.1309 34.7986 14.8502 16.1309 34.7986 0 0 0
387 129 2 16.0559 15.6773 33.9287 16.0559 15.6773 33.9287 0 0 0
388 130 1 12.58 13.2791 23.2384 12.58 13.2791 23.2384 0 0 0
389 130 2 13.5189 13.3508 23.4951 13.5189 13.3508 23.4951 0 0 0
390 130 2 12.3402 12.3407 23.3349 12.3402 12.3407 23.3349 0 0 0
391 131 1 5.87817 6.07977 28.529 5.87817 6.07977 28.529 0 0 0
392 131 2 6.82345 6.23082 28.3832 6.82345 6.23082 28.3832 0 0 0
393 131 2 5.43062 6.35447 27.719 5.43062 6.35447 27.719 0 0 0
394 132 1 11.7154 3.6614 34.7857 11.7154 3.6614 34.7857 0 0 0
395 132 2 10.8437 4.09776 34.8021 10.8437 4.09776 34.8021 0 0 0
396 132 2 12.042 3.79193 33.8799 12.042 3.79193 33.8799 0 0 0
397 133 1 4.34882 14.557 25.4794 4.34882 14.557 25.4794 0 0 0
398 133 2 5.05525 13.926 25.6673 5.05525 13.926 25.6673 0 0 0
399 133 2 4.02492 14.3649 24.5933 4.02492 14.3649 24.5933 0 0 0
400 134 1 8.98684 14.2084 23.9321 8.98684 14.2084 23.9321 0 0 0
401 134 2 8.34686 14.4142 24.6332 8.34686 14.4142 24.6332 0 0 0
402 134 2 9.34672 15.0713 23.6714 9.34672 15.0713 23.6714 0 0 0
403 135 1 0.680688 10.0571 19.5015 0.680688 10.0571 19.5015 0 0 0
404 135 2 1.49196 10.3619 19.087 1.49196 10.3619 19.087 0 0 0
405 135 2 0.944356 9.28266 20.0298 0.944356 9.28266 20.0298 0 0 0
406 136 1 4.40387 16.7745 36.3549 4.40387 16.7745 36.3549 0 0 0
407 136 2 4.37732 15.8591 36.0187 4.37732 15.8591 36.0187 0 0 0
408 136 2 5.2063 16.8533 36.8696 5.2063 16.8533 36.8696 0 0 0
409 137 1 7.26546 18.4191 27.9915 7.26546 18.4191 27.9915 0 0 0
410 137 2 8.23237 18.3699 28.0489 8.23237 18.3699 28.0489 0 0 0
411 137 2 6.95154 17.845 28.7023 6.95154 17.845 28.7023 0 0 0
412 138 1 13.6684 17.501 35.2025 13.6684 17.501 35.2025 0 0 0
413 138 2 13.0357 17.5418 34.4699 13.0357 17.5418 34.4699 0 0 0
414 138 2 13.2015 17.0242 35.9105 13.2015 17.0242 35.9105 0 0 0
415 139 1 9.44497 12.8268 21.5362 9.44497 12.8268 21.5362 0 0 0
416 139 2 9.32828 13.3599 22.3388 9.32828 13.3599 22.3388 0 0 0
417 139 2 9.97011 13.3793 20.9338 9.97011 13.3793 20.9338 0 0 0
418 140 1 4.20164 12.8007 28.2596 4.20164 12.8007 28.2596 0 0 0
419 140 2 3.51281 12.8231 28.9411 3.51281 12.8231 28.9411 0 0 0
420 140 2 4.56199 13.7092 28.2158 4.56199 13.7092 28.2158 0 0 0
421 141 1 15.2336 3.13247 33.5578 15.2336 3.13247 33.5578 0 0 0
422 141 2 16.0334 2.76959 33.1575 16.0334 2.76959 33.1575 0 0 0
423 141 2 14.9607 2.53861 34.2791 14.9607 2.53861 34.2791 0 0 0
424 142 1 13.3724 6.97959 26.026 13.3724 6.97959 26.026 0 0 0
425 142 2 14.1222 7.25967 25.4736 14.1222 7.25967 25.4736 0 0 0
426 142 2 13.5057 7.42335 26.8811 13.5057 7.42335 26.8811 0 0 0
427 143 1 7.06358 14.2852 33.4696 7.06358 14.2852 33.4696 0 0 0
428 143 2 6.44083 13.6169 33.8043 6.44083 13.6169 33.8043 0 0 0
429 143 2 6.65067 15.1707 33.493 6.65067 15.1707 33.493 0 0 0
430 144 1 4.04637 14.2959 35.2261 4.04637 14.2959 35.2261 0 0 0
431 144 2 3.11588 14.1459 35.4532 3.11588 14.1459 35.4532 0 0 0
432 144 2 4.03493 14.3243 34.2583 4.03493 14.3243 34.2583 0 0 0
433 145 1 11.263 8.3793 25.3867 11.263 8.3793 25.3867 0 0 0
434 145 2 11.5096 9.18938 24.9086 11.5096 9.18938 24.9086 0 0 0
435 145 2 12.1068 7.88443 25.5123 12.1068 7.88443 25.5123 0 0 0
436 146 1 8.86706 1.58918 22.3559 8.86706 1.58918 22.3559 0 0 0
437 146 2 9.1565 1.59379 23.2867 9.1565 1.59379 23.2867 0 0 0
438 146 2 9.62748 1.24555 21.8552 9.62748 1.24555 21.8552 0 0 0
439 147 1 14.7605 1.71865 24.0895 14.7605 1.71865 24.0895 0 0 0
440 147 2 14.9754 1.37217 24.9579 14.9754 1.37217 24.9579 0 0 0
441 147 2 13.7807 1.6661 24.0009 13.7807 1.6661 24.0009 0 0 0
442 148 1 3.4159 18.1914 34.2368 3.4159 18.1914 34.2368 0 0 0
443 148 2 3.96834 18.1945 33.4446 3.96834 18.1945 33.4446 0 0 0
444 148 2 3.92804 17.7561 34.9435 3.92804 17.7561 34.9435 0 0 0
445 149 1 6.24652 16.9259 33.0941 6.24652 16.9259 33.0941 0 0 0
446 149 2 6.48988 17.0232 32.1621 6.48988 17.0232 32.1621 0 0 0
447 149 2 6.95487 17.3925 33.5672 6.95487 17.3925 33.5672 0 0 0
448 150 1 0.211332 13.4884 28.3031 0.211332 13.4884 28.3031 0 0 0
449 150 2 18.1445 12.8508 28.0523 -0.481342 12.8508 28.0523 0 0 0
450 150 2 0.909311 12.9764 28.7349 0.909311 12.9764 28.7349 0 0 0
451 151 1 14.9644 15.582 27.8534 14.9644 15.582 27.8534 0 0 0
452 151 2 14.1278 16.0948 27.9055 14.1278 16.0948 27.9055 0 0 0
453 151 2 15.1637 15.3822 28.8015 15.1637 15.3822 28.8015 0 0 0
454 152 1 1.39467 16.4157 33.5741 1.39467 16.4157 33.5741 0 0 0
455 152 2 2.04363 17.0903 33.8581 2.04363 17.0903 33.8581 0 0 0
456 152 2 1.3241 15.7763 34.3075 1.3241 15.7763 34.3075 0 0 0
457 153 1 9.60611 16.6328 22.5853 9.60611 16.6328 22.5853 0 0 0
458 153 2 9.18223 16.628 21.6944 9.18223 16.628 21.6944 0 0 0
459 153 2 9.08943 17.2689 23.1189 9.08943 17.2689 23.1189 0 0 0
460 154 1 16.5467 11.1171 34.3701 16.5467 11.1171 34.3701 0 0 0
461 154 2 16.2622 11.7296 35.0654 16.2622 11.7296 35.0654 0 0 0
462 154 2 15.7495 10.8891 33.8543 15.7495 10.8891 33.8543 0 0 0
463 155 1 7.49385 9.05075 21.6142 7.49385 9.05075 21.6142 0 0 0
464 155 2 6.69138 8.56083 21.8592 6.69138 8.56083 21.8592 0 0 0
465 155 2 8.0233 9.15034 22.4182 8.0233 9.15034 22.4182 0 0 0
466 156 1 0.643078 17.4488 28.3655 0.643078 17.4488 28.3655 0 0 0
467 156 2 0.826181 17.0974 29.2583 0.826181 17.0974 29.2583 0 0 0
468 156 2 0.978953 16.7638 27.772 0.978953 16.7638 27.772 0 0 0
469 157 1 11.6901 10.7236 33.2111 11.6901 10.7236 33.2111 0 0 0
470 157 2 11.108 10.4996 32.4714 11.108 10.4996 32.4714 0 0 0
471 157 2 12.5978 10.6686 32.8749 12.5978 10.6686 32.8749 0 0 0
472 158 1 2.2475 14.5722 23.4653 2.2475 14.5722 23.4653 0 0 0
473 158 2 2.07046 15.4834 23.7535 2.07046 15.4834 23.7535 0 0 0
474 158 2 1.78527 14.4889 22.62 1.78527 14.4889 22.62 0 0 0
475 159 1 9.4176 13.3872 32.0552 9.4176 13.3872 32.0552 0 0 0